<?xml version="1.0"?>
<VTKFile type="UnstructuredGrid"  version="0.1"  >
<UnstructuredGrid>
<Piece  NumberOfPoints="3636" NumberOfCells="15000">
<Points>
<DataArray  type="Float64"  NumberOfComponents="3"  format="ascii">0 0 0  3 0 0  6 0 0  9 0 0  12 0 0  15 0 0  18 0 0  21 0 0  24 0 0  27 0 0  30 0 0  33 0 0  36 0 0  39 0 0  42 0 0  45 0 0  48 0 0  51 0 0  54 0 0  57 0 0  60 0 0  63 0 0  66 0 0  69 0 0  72 0 0  75 0 0  78 0 0  81 0 0  84 0 0  87 0 0  90 0 0  93 0 0  96 0 0  99 0 0  102 0 0  105 0 0  108 0 0  111 0 0  114 0 0  117 0 0  120 0 0  123 0 0  126 0 0  129 0 0  132 0 0  135 0 0  138 0 0  141 0 0  144 0 0  147 0 0  150 0 0  153 0 0  156 0 0  159 0 0  162 0 0  165 0 0  168 0 0  171 0 0  174 0 0  177 0 0  180 0 0  183 0 0  186 0 0  189 0 0  192 0 0  195 0 0  198 0 0  201 0 0  204 0 0  207 0 0  210 0 0  213 0 0  216 0 0  219 0 0  222 0 0  225 0 0  228 0 0  231 0 0  234 0 0  237 0 0  240 0 0  243 0 0  246 0 0  249 0 0  252 0 0  255 0 0  258 0 0  261 0 0  264 0 0  267 0 0  270 0 0  273 0 0  276 0 0  279 0 0  282 0 0  285 0 0  288 0 0  291 0 0  294 0 0  297 0 0  300 0 0  0 1.2 0  3 1.2 0  6 1.2 0  9 1.2 0  12 1.2 0  15 1.2 0  18 1.2 0  21 1.2 0  24 1.2 0  27 1.2 0  30 1.2 0  33 1.2 0  36 1.2 0  39 1.2 0  42 1.2 0  45 1.2 0  48 1.2 0  51 1.2 0  54 1.2 0  57 1.2 0  60 1.2 0  63 1.2 0  66 1.2 0  69 1.2 0  72 1.2 0  75 1.2 0  78 1.2 0  81 1.2 0  84 1.2 0  87 1.2 0  90 1.2 0  93 1.2 0  96 1.2 0  99 1.2 0  102 1.2 0  105 1.2 0  108 1.2 0  111 1.2 0  114 1.2 0  117 1.2 0  120 1.2 0  123 1.2 0  126 1.2 0  129 1.2 0  132 1.2 0  135 1.2 0  138 1.2 0  141 1.2 0  144 1.2 0  147 1.2 0  150 1.2 0  153 1.2 0  156 1.2 0  159 1.2 0  162 1.2 0  165 1.2 0  168 1.2 0  171 1.2 0  174 1.2 0  177 1.2 0  180 1.2 0  183 1.2 0  186 1.2 0  189 1.2 0  192 1.2 0  195 1.2 0  198 1.2 0  201 1.2 0  204 1.2 0  207 1.2 0  210 1.2 0  213 1.2 0  216 1.2 0  219 1.2 0  222 1.2 0  225 1.2 0  228 1.2 0  231 1.2 0  234 1.2 0  237 1.2 0  240 1.2 0  243 1.2 0  246 1.2 0  249 1.2 0  252 1.2 0  255 1.2 0  258 1.2 0  261 1.2 0  264 1.2 0  267 1.2 0  270 1.2 0  273 1.2 0  276 1.2 0  279 1.2 0  282 1.2 0  285 1.2 0  288 1.2 0  291 1.2 0  294 1.2 0  297 1.2 0  300 1.2 0  0 2.4 0  3 2.4 0  6 2.4 0  9 2.4 0  12 2.4 0  15 2.4 0  18 2.4 0  21 2.4 0  24 2.4 0  27 2.4 0  30 2.4 0  33 2.4 0  36 2.4 0  39 2.4 0  42 2.4 0  45 2.4 0  48 2.4 0  51 2.4 0  54 2.4 0  57 2.4 0  60 2.4 0  63 2.4 0  66 2.4 0  69 2.4 0  72 2.4 0  75 2.4 0  78 2.4 0  81 2.4 0  84 2.4 0  87 2.4 0  90 2.4 0  93 2.4 0  96 2.4 0  99 2.4 0  102 2.4 0  105 2.4 0  108 2.4 0  111 2.4 0  114 2.4 0  117 2.4 0  120 2.4 0  123 2.4 0  126 2.4 0  129 2.4 0  132 2.4 0  135 2.4 0  138 2.4 0  141 2.4 0  144 2.4 0  147 2.4 0  150 2.4 0  153 2.4 0  156 2.4 0  159 2.4 0  162 2.4 0  165 2.4 0  168 2.4 0  171 2.4 0  174 2.4 0  177 2.4 0  180 2.4 0  183 2.4 0  186 2.4 0  189 2.4 0  192 2.4 0  195 2.4 0  198 2.4 0  201 2.4 0  204 2.4 0  207 2.4 0  210 2.4 0  213 2.4 0  216 2.4 0  219 2.4 0  222 2.4 0  225 2.4 0  228 2.4 0  231 2.4 0  234 2.4 0  237 2.4 0  240 2.4 0  243 2.4 0  246 2.4 0  249 2.4 0  252 2.4 0  255 2.4 0  258 2.4 0  261 2.4 0  264 2.4 0  267 2.4 0  270 2.4 0  273 2.4 0  276 2.4 0  279 2.4 0  282 2.4 0  285 2.4 0  288 2.4 0  291 2.4 0  294 2.4 0  297 2.4 0  300 2.4 0  0 3.6 0  3 3.6 0  6 3.6 0  9 3.6 0  12 3.6 0  15 3.6 0  18 3.6 0  21 3.6 0  24 3.6 0  27 3.6 0  30 3.6 0  33 3.6 0  36 3.6 0  39 3.6 0  42 3.6 0  45 3.6 0  48 3.6 0  51 3.6 0  54 3.6 0  57 3.6 0  60 3.6 0  63 3.6 0  66 3.6 0  69 3.6 0  72 3.6 0  75 3.6 0  78 3.6 0  81 3.6 0  84 3.6 0  87 3.6 0  90 3.6 0  93 3.6 0  96 3.6 0  99 3.6 0  102 3.6 0  105 3.6 0  108 3.6 0  111 3.6 0  114 3.6 0  117 3.6 0  120 3.6 0  123 3.6 0  126 3.6 0  129 3.6 0  132 3.6 0  135 3.6 0  138 3.6 0  141 3.6 0  144 3.6 0  147 3.6 0  150 3.6 0  153 3.6 0  156 3.6 0  159 3.6 0  162 3.6 0  165 3.6 0  168 3.6 0  171 3.6 0  174 3.6 0  177 3.6 0  180 3.6 0  183 3.6 0  186 3.6 0  189 3.6 0  192 3.6 0  195 3.6 0  198 3.6 0  201 3.6 0  204 3.6 0  207 3.6 0  210 3.6 0  213 3.6 0  216 3.6 0  219 3.6 0  222 3.6 0  225 3.6 0  228 3.6 0  231 3.6 0  234 3.6 0  237 3.6 0  240 3.6 0  243 3.6 0  246 3.6 0  249 3.6 0  252 3.6 0  255 3.6 0  258 3.6 0  261 3.6 0  264 3.6 0  267 3.6 0  270 3.6 0  273 3.6 0  276 3.6 0  279 3.6 0  282 3.6 0  285 3.6 0  288 3.6 0  291 3.6 0  294 3.6 0  297 3.6 0  300 3.6 0  0 4.8 0  3 4.8 0  6 4.8 0  9 4.8 0  12 4.8 0  15 4.8 0  18 4.8 0  21 4.8 0  24 4.8 0  27 4.8 0  30 4.8 0  33 4.8 0  36 4.8 0  39 4.8 0  42 4.8 0  45 4.8 0  48 4.8 0  51 4.8 0  54 4.8 0  57 4.8 0  60 4.8 0  63 4.8 0  66 4.8 0  69 4.8 0  72 4.8 0  75 4.8 0  78 4.8 0  81 4.8 0  84 4.8 0  87 4.8 0  90 4.8 0  93 4.8 0  96 4.8 0  99 4.8 0  102 4.8 0  105 4.8 0  108 4.8 0  111 4.8 0  114 4.8 0  117 4.8 0  120 4.8 0  123 4.8 0  126 4.8 0  129 4.8 0  132 4.8 0  135 4.8 0  138 4.8 0  141 4.8 0  144 4.8 0  147 4.8 0  150 4.8 0  153 4.8 0  156 4.8 0  159 4.8 0  162 4.8 0  165 4.8 0  168 4.8 0  171 4.8 0  174 4.8 0  177 4.8 0  180 4.8 0  183 4.8 0  186 4.8 0  189 4.8 0  192 4.8 0  195 4.8 0  198 4.8 0  201 4.8 0  204 4.8 0  207 4.8 0  210 4.8 0  213 4.8 0  216 4.8 0  219 4.8 0  222 4.8 0  225 4.8 0  228 4.8 0  231 4.8 0  234 4.8 0  237 4.8 0  240 4.8 0  243 4.8 0  246 4.8 0  249 4.8 0  252 4.8 0  255 4.8 0  258 4.8 0  261 4.8 0  264 4.8 0  267 4.8 0  270 4.8 0  273 4.8 0  276 4.8 0  279 4.8 0  282 4.8 0  285 4.8 0  288 4.8 0  291 4.8 0  294 4.8 0  297 4.8 0  300 4.8 0  0 6 0  3 6 0  6 6 0  9 6 0  12 6 0  15 6 0  18 6 0  21 6 0  24 6 0  27 6 0  30 6 0  33 6 0  36 6 0  39 6 0  42 6 0  45 6 0  48 6 0  51 6 0  54 6 0  57 6 0  60 6 0  63 6 0  66 6 0  69 6 0  72 6 0  75 6 0  78 6 0  81 6 0  84 6 0  87 6 0  90 6 0  93 6 0  96 6 0  99 6 0  102 6 0  105 6 0  108 6 0  111 6 0  114 6 0  117 6 0  120 6 0  123 6 0  126 6 0  129 6 0  132 6 0  135 6 0  138 6 0  141 6 0  144 6 0  147 6 0  150 6 0  153 6 0  156 6 0  159 6 0  162 6 0  165 6 0  168 6 0  171 6 0  174 6 0  177 6 0  180 6 0  183 6 0  186 6 0  189 6 0  192 6 0  195 6 0  198 6 0  201 6 0  204 6 0  207 6 0  210 6 0  213 6 0  216 6 0  219 6 0  222 6 0  225 6 0  228 6 0  231 6 0  234 6 0  237 6 0  240 6 0  243 6 0  246 6 0  249 6 0  252 6 0  255 6 0  258 6 0  261 6 0  264 6 0  267 6 0  270 6 0  273 6 0  276 6 0  279 6 0  282 6 0  285 6 0  288 6 0  291 6 0  294 6 0  297 6 0  300 6 0  0 0 1.2  3 0 1.2  6 0 1.2  9 0 1.2  12 0 1.2  15 0 1.2  18 0 1.2  21 0 1.2  24 0 1.2  27 0 1.2  30 0 1.2  33 0 1.2  36 0 1.2  39 0 1.2  42 0 1.2  45 0 1.2  48 0 1.2  51 0 1.2  54 0 1.2  57 0 1.2  60 0 1.2  63 0 1.2  66 0 1.2  69 0 1.2  72 0 1.2  75 0 1.2  78 0 1.2  81 0 1.2  84 0 1.2  87 0 1.2  90 0 1.2  93 0 1.2  96 0 1.2  99 0 1.2  102 0 1.2  105 0 1.2  108 0 1.2  111 0 1.2  114 0 1.2  117 0 1.2  120 0 1.2  123 0 1.2  126 0 1.2  129 0 1.2  132 0 1.2  135 0 1.2  138 0 1.2  141 0 1.2  144 0 1.2  147 0 1.2  150 0 1.2  153 0 1.2  156 0 1.2  159 0 1.2  162 0 1.2  165 0 1.2  168 0 1.2  171 0 1.2  174 0 1.2  177 0 1.2  180 0 1.2  183 0 1.2  186 0 1.2  189 0 1.2  192 0 1.2  195 0 1.2  198 0 1.2  201 0 1.2  204 0 1.2  207 0 1.2  210 0 1.2  213 0 1.2  216 0 1.2  219 0 1.2  222 0 1.2  225 0 1.2  228 0 1.2  231 0 1.2  234 0 1.2  237 0 1.2  240 0 1.2  243 0 1.2  246 0 1.2  249 0 1.2  252 0 1.2  255 0 1.2  258 0 1.2  261 0 1.2  264 0 1.2  267 0 1.2  270 0 1.2  273 0 1.2  276 0 1.2  279 0 1.2  282 0 1.2  285 0 1.2  288 0 1.2  291 0 1.2  294 0 1.2  297 0 1.2  300 0 1.2  0 1.2 1.2  3 1.2 1.2  6 1.2 1.2  9 1.2 1.2  12 1.2 1.2  15 1.2 1.2  18 1.2 1.2  21 1.2 1.2  24 1.2 1.2  27 1.2 1.2  30 1.2 1.2  33 1.2 1.2  36 1.2 1.2  39 1.2 1.2  42 1.2 1.2  45 1.2 1.2  48 1.2 1.2  51 1.2 1.2  54 1.2 1.2  57 1.2 1.2  60 1.2 1.2  63 1.2 1.2  66 1.2 1.2  69 1.2 1.2  72 1.2 1.2  75 1.2 1.2  78 1.2 1.2  81 1.2 1.2  84 1.2 1.2  87 1.2 1.2  90 1.2 1.2  93 1.2 1.2  96 1.2 1.2  99 1.2 1.2  102 1.2 1.2  105 1.2 1.2  108 1.2 1.2  111 1.2 1.2  114 1.2 1.2  117 1.2 1.2  120 1.2 1.2  123 1.2 1.2  126 1.2 1.2  129 1.2 1.2  132 1.2 1.2  135 1.2 1.2  138 1.2 1.2  141 1.2 1.2  144 1.2 1.2  147 1.2 1.2  150 1.2 1.2  153 1.2 1.2  156 1.2 1.2  159 1.2 1.2  162 1.2 1.2  165 1.2 1.2  168 1.2 1.2  171 1.2 1.2  174 1.2 1.2  177 1.2 1.2  180 1.2 1.2  183 1.2 1.2  186 1.2 1.2  189 1.2 1.2  192 1.2 1.2  195 1.2 1.2  198 1.2 1.2  201 1.2 1.2  204 1.2 1.2  207 1.2 1.2  210 1.2 1.2  213 1.2 1.2  216 1.2 1.2  219 1.2 1.2  222 1.2 1.2  225 1.2 1.2  228 1.2 1.2  231 1.2 1.2  234 1.2 1.2  237 1.2 1.2  240 1.2 1.2  243 1.2 1.2  246 1.2 1.2  249 1.2 1.2  252 1.2 1.2  255 1.2 1.2  258 1.2 1.2  261 1.2 1.2  264 1.2 1.2  267 1.2 1.2  270 1.2 1.2  273 1.2 1.2  276 1.2 1.2  279 1.2 1.2  282 1.2 1.2  285 1.2 1.2  288 1.2 1.2  291 1.2 1.2  294 1.2 1.2  297 1.2 1.2  300 1.2 1.2  0 2.4 1.2  3 2.4 1.2  6 2.4 1.2  9 2.4 1.2  12 2.4 1.2  15 2.4 1.2  18 2.4 1.2  21 2.4 1.2  24 2.4 1.2  27 2.4 1.2  30 2.4 1.2  33 2.4 1.2  36 2.4 1.2  39 2.4 1.2  42 2.4 1.2  45 2.4 1.2  48 2.4 1.2  51 2.4 1.2  54 2.4 1.2  57 2.4 1.2  60 2.4 1.2  63 2.4 1.2  66 2.4 1.2  69 2.4 1.2  72 2.4 1.2  75 2.4 1.2  78 2.4 1.2  81 2.4 1.2  84 2.4 1.2  87 2.4 1.2  90 2.4 1.2  93 2.4 1.2  96 2.4 1.2  99 2.4 1.2  102 2.4 1.2  105 2.4 1.2  108 2.4 1.2  111 2.4 1.2  114 2.4 1.2  117 2.4 1.2  120 2.4 1.2  123 2.4 1.2  126 2.4 1.2  129 2.4 1.2  132 2.4 1.2  135 2.4 1.2  138 2.4 1.2  141 2.4 1.2  144 2.4 1.2  147 2.4 1.2  150 2.4 1.2  153 2.4 1.2  156 2.4 1.2  159 2.4 1.2  162 2.4 1.2  165 2.4 1.2  168 2.4 1.2  171 2.4 1.2  174 2.4 1.2  177 2.4 1.2  180 2.4 1.2  183 2.4 1.2  186 2.4 1.2  189 2.4 1.2  192 2.4 1.2  195 2.4 1.2  198 2.4 1.2  201 2.4 1.2  204 2.4 1.2  207 2.4 1.2  210 2.4 1.2  213 2.4 1.2  216 2.4 1.2  219 2.4 1.2  222 2.4 1.2  225 2.4 1.2  228 2.4 1.2  231 2.4 1.2  234 2.4 1.2  237 2.4 1.2  240 2.4 1.2  243 2.4 1.2  246 2.4 1.2  249 2.4 1.2  252 2.4 1.2  255 2.4 1.2  258 2.4 1.2  261 2.4 1.2  264 2.4 1.2  267 2.4 1.2  270 2.4 1.2  273 2.4 1.2  276 2.4 1.2  279 2.4 1.2  282 2.4 1.2  285 2.4 1.2  288 2.4 1.2  291 2.4 1.2  294 2.4 1.2  297 2.4 1.2  300 2.4 1.2  0 3.6 1.2  3 3.6 1.2  6 3.6 1.2  9 3.6 1.2  12 3.6 1.2  15 3.6 1.2  18 3.6 1.2  21 3.6 1.2  24 3.6 1.2  27 3.6 1.2  30 3.6
[...]
<PointData  Scalars="p_CO2"> 
<DataArray  type="Float64"  Name="p_CO2"  format="ascii">4.5000000000000000e+01  4.0080812712429669e+01  4.0150870988247107e+01  4.0051779860952486e+01  4.0021834201291774e+01  4.0008840008268983e+01  4.0003616272664985e+01  4.0001477020369585e+01  4.0000603707203609e+01  4.0000246761492718e+01  4.0000100872582323e+01  4.0000041237022181e+01  4.0000016858503137e+01  4.0000006892406823e+01  4.0000002818107454e+01  4.0000001152428588e+01  4.0000000471430972e+01  4.0000000192991102e+01  4.0000000079127517e+01  4.0000000032548968e+01  4.0000000013480822e+01  4.0000000005662244e+01  4.0000000002445361e+01  4.0000000001112177e+01  4.0000000000551317e+01  4.0000000000308233e+01  4.0000000000196877e+01  4.0000000000141007e+01  4.0000000000109246e+01  4.0000000000088605e+01  4.0000000000073591e+01  4.0000000000061839e+01  4.0000000000052239e+01  4.0000000000044231e+01  4.0000000000037467e+01  4.0000000000031754e+01  4.0000000000026901e+01  4.0000000000022780e+01  4.0000000000019291e+01  4.0000000000016328e+01  4.0000000000013820e+01  4.0000000000011696e+01  4.0000000000009891e+01  4.0000000000008363e+01  4.0000000000007077e+01  4.0000000000005983e+01  4.0000000000005059e+01  4.0000000000004277e+01  4.0000000000003617e+01  4.0000000000003055e+01  4.0000000000002586e+01  4.0000000000002181e+01  4.0000000000001847e+01  4.0000000000001563e+01  4.0000000000001322e+01  4.0000000000001116e+01  4.0000000000000945e+01  4.0000000000000796e+01  4.0000000000000675e+01  4.0000000000000568e+01  4.0000000000000483e+01  4.0000000000000405e+01  4.0000000000000348e+01  4.0000000000000291e+01  4.0000000000000249e+01  4.0000000000000206e+01  4.0000000000000171e+01  4.0000000000000149e+01  4.0000000000000128e+01  4.0000000000000107e+01  4.0000000000000092e+01  4.0000000000000078e+01  4.0000000000000064e+01  4.0000000000000057e+01  4.0000000000000050e+01  4.0000000000000043e+01  4.0000000000000043e+01  4.0000000000000028e+01  4.0000000000000028e+01  4.0000000000000021e+01  4.0000000000000021e+01  4.0000000000000021e+01  4.0000000000000014e+01  4.0000000000000014e+01  4.0000000000000007e+01  4.0000000000000007e+01  4.0000000000000007e+01  4.0000000000000007e+01  4.0000000000000007e+01  4.0000000000000000e+01  4.0000000000000007e+01  4.0000000000000000e+01  4.0000000000000000e+01  4.0000000000000000e+01  4.0000000000000000e+01  4.0000000000000000e+01  4.0000000000000000e+01  3.9999999999999993e+01  3.9999999999999993e+01  3.9999999999999993e+01  4.0000000000000014e+01  4.5000000000000000e+01  4.1391631618365942e+01  4.0574113279650916e+01  4.0228511115793168e+01  4.0093211197937464e+01  4.0037991237658296e+01  4.0015516711340304e+01  4.0006339555906401e+01  4.0002590935782344e+01  4.0001059038225591e+01  4.0000432915578571e+01  4.0000176976845459e+01  4.0000072351428429e+01  4.0000029579990709e+01  4.0000012094362802e+01  4.0000004945791744e+01  4.0000002023165919e+01  4.0000000828192356e+01  4.0000000339529194e+01  4.0000000139632881e+01  4.0000000057802936e+01  4.0000000024252877e+01  4.0000000010451807e+01  4.0000000004734844e+01  4.0000000002332243e+01  4.0000000001293117e+01  4.0000000000819000e+01  4.0000000000582617e+01  4.0000000000449340e+01  4.0000000000363421e+01  4.0000000000301370e+01  4.0000000000252989e+01  4.0000000000213582e+01  4.0000000000180748e+01  4.0000000000153094e+01  4.0000000000129695e+01  4.0000000000109857e+01  4.0000000000093031e+01  4.0000000000078757e+01  4.0000000000066663e+01  4.0000000000056410e+01  4.0000000000047720e+01  4.0000000000040366e+01  4.0000000000034142e+01  4.0000000000028869e+01  4.0000000000024414e+01  4.0000000000020634e+01  4.0000000000017451e+01  4.0000000000014751e+01  4.0000000000012470e+01  4.0000000000010537e+01  4.0000000000008910e+01  4.0000000000007532e+01  4.0000000000006359e+01  4.0000000000005379e+01  4.0000000000004547e+01  4.0000000000003837e+01  4.0000000000003247e+01  4.0000000000002743e+01  4.0000000000002323e+01  4.0000000000001961e+01  4.0000000000001656e+01  4.0000000000001400e+01  4.0000000000001187e+01  4.0000000000001002e+01  4.0000000000000846e+01  4.0000000000000711e+01  4.0000000000000611e+01  4.0000000000000512e+01  4.0000000000000433e+01  4.0000000000000369e+01  4.0000000000000313e+01  4.0000000000000263e+01  4.0000000000000220e+01  4.0000000000000185e+01  4.0000000000000163e+01  4.0000000000000135e+01  4.0000000000000114e+01  4.0000000000000099e+01  4.0000000000000078e+01  4.0000000000000071e+01  4.0000000000000064e+01  4.0000000000000050e+01  4.0000000000000043e+01  4.0000000000000036e+01  4.0000000000000036e+01  4.0000000000000028e+01  4.0000000000000021e+01  4.0000000000000021e+01  4.0000000000000014e+01  4.0000000000000014e+01  4.0000000000000007e+01  4.0000000000000007e+01  4.0000000000000007e+01  4.0000000000000007e+01  4.0000000000000000e+01  4.0000000000000007e+01  4.0000000000000000e+01  4.0000000000000000e+01  4.0000000000000000e+01  4.0000000000000014e+01  4.5000000000000000e+01  4.2001821675019961e+01  4.0828145598748378e+01  4.0335863507587689e+01  4.0137030148068135e+01  4.0055913627134096e+01  4.0022838540171762e+01  4.0009331741032121e+01  4.0003813860085877e+01  4.0001558913334435e+01  4.0000637255173025e+01  4.0000260511147602e+01  4.0000106501721667e+01  4.0000043541881951e+01  4.0000017802934515e+01  4.0000007280197842e+01  4.0000002978076147e+01  4.0000001219068317e+01  4.0000000499753867e+01  4.0000000205506524e+01  4.0000000085054147e+01  4.0000000035670482e+01  4.0000000015357713e+01  4.0000000006944916e+01  4.0000000003410861e+01  4.0000000001883770e+01  4.0000000001188226e+01  4.0000000000842434e+01  4.0000000000648228e+01  4.0000000000523521e+01  4.0000000000433751e+01  4.0000000000363919e+01  4.0000000000307118e+01  4.0000000000259838e+01  4.0000000000220041e+01  4.0000000000186382e+01  4.0000000000157854e+01  4.0000000000133660e+01  4.0000000000113147e+01  4.0000000000095760e+01  4.0000000000081030e+01  4.0000000000068546e+01  4.0000000000057973e+01  4.0000000000049035e+01  4.0000000000041460e+01  4.0000000000035058e+01  4.0000000000029637e+01  4.0000000000025054e+01  4.0000000000021181e+01  4.0000000000017906e+01  4.0000000000015135e+01  4.0000000000012790e+01  4.0000000000010814e+01  4.0000000000009130e+01  4.0000000000007724e+01  4.0000000000006530e+01  4.0000000000005514e+01  4.0000000000004661e+01  4.0000000000003936e+01  4.0000000000003332e+01  4.0000000000002814e+01  4.0000000000002380e+01  4.0000000000002011e+01  4.0000000000001698e+01  4.0000000000001435e+01  4.0000000000001215e+01  4.0000000000001023e+01  4.0000000000000874e+01  4.0000000000000732e+01  4.0000000000000618e+01  4.0000000000000526e+01  4.0000000000000441e+01  4.0000000000000369e+01  4.0000000000000320e+01  4.0000000000000270e+01  4.0000000000000227e+01  4.0000000000000192e+01  4.0000000000000163e+01  4.0000000000000135e+01  4.0000000000000114e+01  4.0000000000000099e+01  4.0000000000000092e+01  4.0000000000000071e+01  4.0000000000000064e+01  4.0000000000000050e+01  4.0000000000000050e+01  4.0000000000000036e+01  4.0000000000000028e+01  4.0000000000000021e+01  4.0000000000000028e+01  4.0000000000000021e+01  4.0000000000000014e+01  4.0000000000000007e+01  4.0000000000000007e+01  4.0000000000000007e+01  4.0000000000000007e+01  4.0000000000000007e+01  4.0000000000000000e+01  4.0000000000000000e+01  4.0000000000000000e+01  4.0000000000000014e+01  4.5000000000000000e+01  4.1966422083889228e+01  4.0829062920398663e+01  4.0337041382715547e+01  4.0137826831192328e+01  4.0056266608627666e+01  4.0022988813664853e+01  4.0009393777450128e+01  4.0003839325411015e+01  4.0001569333386989e+01  4.0000641515889384e+01  4.0000262252869256e+01  4.0000107213667960e+01  4.0000043832879918e+01  4.0000017921862806e+01  4.0000007328791177e+01  4.0000002997921428e+01  4.0000001227165164e+01  4.0000000503050977e+01  4.0000000206843922e+01  4.0000000085592333e+01  4.0000000035883509e+01  4.0000000015439056e+01  4.0000000006973423e+01  4.0000000003418585e+01  4.0000000001883656e+01  4.0000000001185455e+01  4.0000000000839023e+01  4.0000000000644931e+01  4.0000000000520579e+01  4.0000000000431207e+01  4.0000000000361759e+01  4.0000000000305292e+01  4.0000000000258296e+01  4.0000000000218741e+01  4.0000000000185281e+01  4.0000000000156930e+01  4.0000000000132886e+01  4.0000000000112493e+01  4.0000000000095206e+01  4.0000000000080561e+01  4.0000000000068148e+01  4.0000000000057646e+01  4.0000000000048750e+01  4.0000000000041226e+01  4.0000000000034859e+01  4.0000000000029466e+01  4.0000000000024912e+01  4.0000000000021060e+01  4.0000000000017799e+01  4.0000000000015049e+01  4.0000000000012719e+01  4.0000000000010751e+01  4.0000000000009081e+01  4.0000000000007681e+01  4.0000000000006487e+01  4.0000000000005485e+01  4.0000000000004633e+01  4.0000000000003915e+01  4.0000000000003311e+01  4.0000000000002800e+01  4.0000000000002366e+01  4.0000000000001997e+01  4.0000000000001691e+01  4.0000000000001428e+01  4.0000000000001201e+01  4.0000000000001023e+01  4.0000000000000867e+01  4.0000000000000725e+01  4.0000000000000618e+01  4.0000000000000526e+01  4.0000000000000441e+01  4.0000000000000369e+01  4.0000000000000320e+01  4.0000000000000270e+01  4.0000000000000227e+01  4.0000000000000192e+01  4.0000000000000163e+01  4.0000000000000135e+01  4.0000000000000114e+01  4.0000000000000099e+01  4.0000000000000092e+01  4.0000000000000071e+01  4.0000000000000064e+01  4.0000000000000050e+01  4.0000000000000043e+01  4.0000000000000036e+01  4.0000000000000028e+01  4.0000000000000021e+01  4.0000000000000021e+01  4.0000000000000021e+01  4.0000000000000014e+01  4.0000000000000007e+01  4.0000000000000007e+01  4.0000000000000007e+01  4.0000000000000007e+01  4.0000000000000007e+01  4.0000000000000000e+01  4.0000000000000000e+01  4.0000000000000000e+01  4.0000000000000014e+01  4.5000000000000000e+01  4.1300410419311241e+01  4.0579231122060989e+01  4.0230426693033060e+01  4.0094700086606636e+01  4.0038627820965182e+01  4.0015789127840222e+01  4.0006451761195159e+01  4.0002637001522210e+01  4.0001077884173633e+01  4.0000440621502328e+01  4.0000180126822876e+01  4.0000073639005457e+01  4.0000030106263843e+01  4.0000012309441679e+01  4.0000005033667051e+01  4.0000002059049059e+01  4.0000000842828015e+01  4.0000000345484594e+01  4.0000000142044513e+01  4.0000000058769757e+01  4.0000000024632264e+01  4.0000000010593681e+01  4.0000000004781789e+01  4.0000000002342176e+01  4.0000000001289408e+01  4.0000000000810964e+01  4.0000000000573841e+01  4.0000000000441140e+01  4.0000000000356181e+01  4.0000000000295138e+01  4.0000000000247688e+01  4.0000000000209084e+01  4.0000000000176946e+01  4.0000000000149882e+01  4.0000000000126981e+01  4.0000000000107569e+01  4.0000000000091099e+01  4.0000000000077129e+01  4.0000000000065285e+01  4.0000000000055245e+01  4.0000000000046740e+01  4.0000000000039535e+01  4.0000000000033438e+01  4.0000000000028280e+01  4.0000000000023910e+01  4.0000000000020215e+01  4.0000000000017089e+01  4.0000000000014445e+01  4.0000000000012214e+01  4.0000000000010324e+01  4.0000000000008725e+01  4.0000000000007375e+01  4.0000000000006231e+01  4.0000000000005272e+01  4.0000000000004455e+01  4.0000000000003766e+01  4.0000000000003176e+01  4.0000000000002686e+01  4.0000000000002274e+01  4.0000000000001918e+01  4.0000000000001627e+01  4.0000000000001371e+01  4.0000000000001158e+01  4.0000000000000981e+01  4.0000000000000824e+01  4.0000000000000703e+01  4.0000000000000597e+01  4.0000000000000497e+01  4.0000000000000426e+01  4.0000000000000362e+01  4.0000000000000298e+01  4.0000000000000256e+01  4.0000000000000220e+01  4.0000000000000185e+01  4.0000000000000156e+01  4.0000000000000135e+01  4.0000000000000107e+01  4.0000000000000092e+01  4.0000000000000078e+01  4.0000000000000071e+01  4.0000000000000064e+01  4.0000000000000050e+01  4.0000000000000043e+01  4.0000000000000036e+01  4.0000000000000028e+01  4.0000000000000028e+01  4.0000000000000021e+01  4.0000000000000014e+01  4.0000000000000014e+01  4.0000000000000014e+01  4.0000000000000007e+01  4.0000000000000007e+01  4.0000000000000000e+01  4.0000000000000007e+01  4.0000000000000000e+01  4.0000000000000007e+01  4.0000000000000000e+01  4.0000000000000000e+01  4.0000000000000000e+01  4.0000000000000007e+01  4.5000000000000000e+01  3.9972882881513897e+01  4.0160909631415080e+01  4.0049888382302889e+01  4.0021876552124503e+01  4.0008791117152768e+01  4.0003606535400507e+01  4.0001472411213641e+01  4.0000601947155232e+01  4.0000246037091024e+01  4.0000100577539577e+01  4.0000041116234804e+01  4.0000016809073585e+01  4.0000006872150252e+01  4.0000002809790089e+01  4.0000001148997839e+01  4.0000000470002391e+01  4.0000000192384633e+01  4.0000000078860218e+01  4.0000000032423003e+01  4.0000000013414947e+01  4.0000000005622972e+01  4.0000000002418709e+01  4.0000000001092204e+01  4.0000000000535387e+01  4.0000000000295096e+01  4.0000000000185857e+01  4.0000000000131692e+01  4.0000000000101338e+01  4.0000000000081890e+01  4.0000000000067892e+01  4.0000000000057000e+01  4.0000000000048132e+01  4.0000000000040743e+01  4.0000000000034518e+01  4.0000000000029253e+01  4.0000000000024784e+01  4.0000000000020989e+01  4.0000000000017778e+01  4.0000000000015042e+01  4.0000000000012733e+01  4.0000000000010772e+01  4.0000000000009116e+01  4.0000000000007709e+01  4.0000000000006523e+01  4.0000000000005514e+01  4.0000000000004661e+01  4.0000000000003944e+01  4.0000000000003332e+01  4.0000000000002821e+01  4.0000000000002387e+01  4.0000000000002011e+01  4.0000000000001698e+01  4.0000000000001435e+01  4.0000000000001215e+01  4.0000000000001030e+01  4.0000000000000867e+01  4.0000000000000732e+01  4.0000000000000618e+01  4.0000000000000526e+01  4.0000000000000441e+01  4.0000000000000377e+01  4.0000000000000320e+01  4.0000000000000270e+01  4.0000000000000227e+01  4.0000000000000192e+01  4.0000000000000163e+01  4.0000000000000135e+01  4.0000000000000121e+01  4.0000000000000099e+01  4.0000000000000085e+01  4.0000000000000071e+01  4.0000000000000064e+01  4.0000000000000050e+01  4.0000000000000043e+01  4.0000000000000036e+01  4.0000000000000028e+01  4.0000000000000028e+01  4.0000000000000028e+01  4.0000000000000021e+01  4.0000000000000021e+01  4.0000000000000021e+01  4.0000000000000014e+01  4.0000000000000014e+01  4.0000000000000007e+01  4.0000000000000007e+01  4.0000000000000007e+01  4.0000000000000007e+01  4.0000000000000000e+01  4.0000000000000007e+01  4.0000000000000000e+01  4.0000000000000000e+01  4.0000000000000000e+01  4.0000000000000000e+01  4.0000000000000000e+01  4.0000000000000000e+01  4.0000000000000000e+01  4.0000000000000000e+01  4.0000000000000000e+01  4.0000000000000000e+01  4.0000000000000000e+01  4.5000000000000000e+01  3.9675792377165173e+01  4.0169874064609523e+01  4.0039751758845313e+01  4.0018879299594673e+01  4.0007462489281643e+01  4.0003071296829475e+01  4.0001253041074783e+01  4.0000512368003122e+01  4.0000209425212674e+01  4.0000085614553591e+01  4.0000035000116526e+01  4.0000014308965604e+01  4.0000005850138109e+01  4.0000002391999850e+01  4.0000000978211688e+01  4.0000000400191652e+01  4.0000000163852341e+01  4.0000000067201853e+01  4.0000000027661876e+01  4.0000000011472636e+01  4.0000000004832302e+01  4.0000000002098254e+01  4.0000000000963489e+01  4.0000000000484675e+01  4.0000000000275939e+01  4.0000000000179341e+01  4.0000000000130115e+01  4.0000000000101615e+01  4.0000000000082764e+01  4.0000000000068887e+01  4.0000000000057945e+01  4.0000000000048971e+01  4.0000000000041467e+01  4.0000000000035129e+01  4.0000000000029772e+01  4.0000000000025224e+01  4.0000000000021359e+01  4.0000000000018083e+01  4.0000000000015312e+01  4.0000000000012953e+01  4.0000000000010964e+01  4.0000000000009273e+01  4.0000000000007844e+01  4.0000000000006629e+01  4.0000000000005606e+01  4.0000000000004739e+01  4.0000000000004015e+01  4.0000000000003389e+01  4.0000000000002863e+01  4.0000000000002423e+01  4.0000000000002046e+01  4.0000000000001734e+01  4.0000000000001464e+01  4.0000000000001236e+01  4.0000000000001044e+01  4.0000000000000881e+01  4.0000000000000753e+01  4.0000000000000639e+01  4.0000000000000533e+01  4.0000000000000455e+01  4.0000000000000384e+01  4.0000000000000327e+01  4.0000000000000277e+01  4.0000000000000234e+01  4.0000000000000199e+01  4.0000000000000163e+01  4.0000000000000142e+01  4.0000000000000121e+01  4.0000000000000099e+01  4.0000000000000085e+01  4.0000000000000071e+01  4.0000000000000064e+01  4.0000000000000057e+01  4.0000000000000043e+01  4.0000000000000043e+01  4.0000000000000036e+01  4.0000000000000028e+01  4.0000000000000028e+01  4.0000000000000021e+01  4.0000000000000021e+01  4.0000000000000021e+01  4.0000000000000014e+01  4.0000000000000014e+01  4.0000000000000007e+01  4.0000000000000007e+01  4.0000000000000007e+01  4.0000000000000007e+01  4.0000000000000007e+01  4.0000000000000007e+01  4.0000000000000007e+01  4.0000000000000000e+01  4.0000000000000007e+01  4.0000000000000000e+01  4.0000000000000000e+01  4.0000000000000000e+01  4.0000000000000000e+01  4.0000000000000000e+01  4.0000000000000000e+01  4.0000000000000000e+01  4.0000000000000007e+01  4.5000000000000000e+01  4.1332396246513781e+01  4.0576170359647776e+01  4.0227109293034012e+01  4.0092933467518023e+01  4.0037861376404770e+01  4.0015468621858602e+01  4.0006320208392289e+01  4.0002583192568054e+01  4.0001055904600570e+01  4.0000431643046625e+01  4.0000176458571673e+01  4.0000072140017757e+01  4.0000029493659760e+01  4.0000012059080333e+01  4.0000004931359662e+01  4.0000002017254801e+01  4.0000000825765390e+01  4.0000000338527933e+01  4.0000000139215793e+01  4.0000000057625833e+01  4.0000000024174902e+01  4.0000000010415214e+01  4.0000000004715893e+01  4.0000000002321123e+01  4.0000000001285727e+01  4.0000000000813571e+01  4.0000000000578360e+01  4.0000000000445887e+01  4.0000000000360558e+01  4.0000000000298975e+01  4.0000000000250978e+01  4.0000000000211884e+01  4.0000000000179313e+01  4.0000000000151886e+01  4.0000000000128672e+01  4.0000000000108997e+01  4.0000000000092300e+01  4.0000000000078145e+01  4.0000000000066144e+01  4.0000000000055969e+01  4.0000000000047351e+01  4.0000000000040053e+01  4.0000000000033872e+01  4.0000000000028642e+01  4.0000000000024222e+01  4.0000000000020478e+01  4.0000000000017316e+01  4.0000000000014637e+01  4.0000000000012371e+01  4.0000000000010459e+01  4.0000000000008839e+01  4.0000000000007475e+01  4.0000000000006310e+01  4.0000000000005336e+01  4.0000000000004512e+01  4.0000000000003809e+01  4.0000000000003219e+01  4.0000000000002721e+01  4.0000000000002302e+01  4.0000000000001947e+01  4.0000000000001641e+01  4.0000000000001393e+01  4.0000000000001172e+01  4.0000000000000995e+01  4.0000000000000838e+01  4.0000000000000711e+01  4.0000000000000604e+01  4.0000000000000504e+01  4.0000000000000433e+01  4.0000000000000362e+01  4.0000000000000306e+01  4.0000000000000263e+01  4.0000000000000220e+01  4.0000000000000185e+01  4.0000000000000163e+01  4.0000000000000135e+01  4.0000000000000114e+01  4.0000000000000099e+01  4.0000000000000078e+01  4.0000000000000071e+01  4.0000000000000064e+01  4.0000000000000050e+01  4.0000000000000043e+01  4.0000000000000036e+01  4.0000000000000036e+01  4.0000000000000028e+01  4.0000000000000021e+01  4.0000000000000014e+01  4.0000000000000021e+01  4.0000000000000014e+01  4.0000000000000007e+01  4.0000000000000007e+01  4.0000000000000007e+01  4.0000000000000007e+01  4.0000000000000000e+01  4.0000000000000007e+01  4.0000000000000000e+01  4.0000000000000000e+01  4.0000000000000000e+01  4.0000000000000014e+01  4.5000000000000000e+01  4.2003208537199463e+01  4.0833861007920461e+01  4.0338118405495436e+01  4.0138041301001124e+01  4.0056335129445898e+01  4.0023014557531788e+01  4.0009404380971112e+01  4.0003843753557497e+01  4.0001571179669611e+01  4.0000642281070753e+01  4.0000262568545097e+01  4.0000107343483734e+01  4.0000043886167269e+01  4.0000017943721183e+01  4.0000007337761431e+01  4.0000003001609940e+01  4.0000001228688816e+01  4.0000000503686316e+01  4.0000000207113771e+01  4.0000000085710994e+01  4.000000003593893