<?xml version="1.0"?>
<VTKFile type="UnstructuredGrid"  version="0.1"  >
<UnstructuredGrid>
<Piece  NumberOfPoints="5980" NumberOfCells="27526">
<Points>
<DataArray  type="Float64"  NumberOfComponents="3"  format="ascii">55.333333 25.538462 -2.128205  54.78159675000001 24.53071775 -1.73212425  54.78159675000001 25.27901375 -1.6852945  55.333333 24.862652 -1.615745  55.333333 24.186842 -1.103285  54.2298605 24.2712695 -1.28921375  54.78159675000001 23.85490775 -1.21966425  54.78159675000001 24.60320375 -1.1728345  54.2298605 25.0195655 -1.242384  54.2298605 23.5229735 -1.3360435  55.333333 24.790166 -2.17503475  55.333333 24.04187 -2.2218645  54.78159675000001 23.78242175 -1.778954  55.333333 24.114356 -1.66257475  55.333333 22.545278 -2.315524  54.78159675000001 23.03412575 -1.82578375  55.333333 22.617764 -1.75623425  55.333333 23.36606 -1.7094045  55.333333 23.438546 -1.15011475  55.333333 22.69025 -1.1969445  54.78159675000001 23.10661175 -1.266494  55.333333 23.293574 -2.26869425  55.333333 22.835222 -0.078365  54.78159675000001 23.25158375 -0.1479145  54.78159675000001 23.17909775 -0.70720425  55.333333 23.511032 -0.5908249999999999  54.78159675000001 23.92739375 -0.6603745  54.2298605 23.5954595 -0.77675375  54.2298605 23.6679455 -0.217464  55.333333 22.762736 -0.6376547499999999  53.126388 24.500669 -0.356563  53.67812425 24.08430725 -0.2870135  53.67812425 24.01182125 -0.84630325  54.2298605 24.3437555 -0.7299239999999999  53.67812425 24.76011725 -0.7994734999999999  50 18.74584 -6.25416  51.33333325 18.02238275 -5.81091775  50.6673705 18.566218 -5.42155225  51.33333325 18.7125685 -6.139861249999999  52.66666650000001 18.679297 -6.025562499999999  52.66666650000001 17.98911125 -5.696619  52.00070375 18.5329465 -5.3072535  51.334741 18.386596 -4.5889445  52.00070375 17.84276075 -4.97831  52.66666650000001 17.2989255 -5.367675500000001  55.333333 18.612754 -5.796965  54.66737025 18.4664035 -5.078656000000001  53.99999975 17.95583975 -5.58232025  53.99999975 18.6460255 -5.91126375  53.334037 18.499675 -5.19295475  53.334037 17.80948925 -4.864011250000001  54.0014075 18.320053 -4.360347  50 15.985097 -4.938386  50.6673705 16.49566075 -4.43472175  51.33333325 16.64201125 -5.153030750000001  50.6673705 17.1858465 -4.763665250000001  52.00070375 17.152575 -4.6493665  51.334741 17.69641025 -4.260001  51.334741 17.0062245 -3.9310575  52.669482 18.027352 -2.923729  52.0021115 17.51678825 -3.42739325  52.66807425 17.66313875 -4.14570225  52.0021115 18.206974 -3.75633675  53.33544475 18.1737025 -3.642038  52.66807425 18.3533245 -4.47464575  55.333333 16.039222 -4.478623  54.00070375 15.8891525 -4.06213475  54.66737025 16.5362545 -4.0898995  53.99999975 16.02569075 -4.59356375  52.66666650000001 16.0121595 -4.7085045  52.6673705 15.87562125 -4.1770755  53.334037 16.52272325 -4.20484025  54.0014075 17.033287 -3.701176  53.334741 16.386185 -3.67341125  52.6680745 15.739083 -3.6456465  54.66666650000001 15.39212 -4.45085825  53.33333325 15.37858875 -4.565799  53.33403725 15.2420505 -4.03437  54 14.745018 -4.4230935  51.33403725 15.86209 -4.29201625  51.33333325 15.99862825 -4.823445250000001  52.00140775 16.37265375 -3.788352  52.00070375 16.509192 -4.319781  50.66666675 15.35152625 -4.7956805  52.000704 15.22851925 -4.14931075  52 15.3650575 -4.68073975  51.33333349999999 14.7179555 -4.652975  52.666667 13.450814 -4.367564  52.66737075 14.5949485 -4.00660525  52.00000025 14.08438475 -4.5102695  52.66666675 14.73148675 -4.53803425  53.33333349999999 14.097916 -4.39532875  52.66877825 16.8832175 -3.28468775  52.66807425 17.01975575 -3.81611675  53.33544475 17.5303195 -3.3124525  44.700157 31.925819 -6.374024  44.9921245 30.70286325 -5.305012  44.4571005 30.713583 -5.8293165  44.4601875 31.23530325 -5.304509250000001  44.220218 30.5447875 -4.2349945  44.752155 30.0123475 -4.23549725  44.217131 30.02306725 -4.759801749999999  44.214044 29.501347 -5.284609  44.749068 29.49062725 -4.7603045  45.284092 29.4799075 -4.236  43.740279 29.163756 -2.095965  44.5121855 29.32183175 -3.1659825  43.9771615 29.3325515 -3.690287  43.9802485 29.85427175 -3.16547975  50 22.915556 2.084444  50.6857745 22.415686 1.538242  51.33333325 22.78192025 2.10362175  50.781597 23.31183425 1.47419225  51.563194 23.7081125 0.8639405  51.4673715 22.81196425 0.92799025  52.11493025 23.1781985 1.49337  52.66666650000001 22.6482845 2.1227995  52.01910775 22.28205025 1.55741975  51.371549 21.915816 0.99204  55.333333 22.381013 2.161155  54.68577425000001 22.01477875 1.59577525  53.99999975 22.51464875 2.14197725  54.78159675000001 22.910927 1.5317255  54.2298605 23.440841 0.902296  54.134038 22.54469275 0.96634575  53.4482635 23.04456275 1.51254775  53.35244100000001 22.1484145 1.5765975  54.03821550000001 21.6485445 1.0303955  52.89652725000001 23.57447675 0.8831182500000001  53.03056549999999 23.60452075 -0.29251325  53.67812425 23.970755 0.2728665  52.80070475 22.6783285 0.9471680000000001  53.58230175 23.07460675 0.33691625  52.934743 22.7083725 -0.2284635  52.344791 24.10439075 0.25368875  52.2489685 23.2082425 0.3177385  52.743098 20.916076 -0.100364  52.70488225 21.78218025 1.01121775  52.8389205 21.81222425 -0.16441375  53.48647925 22.1784585 0.400966  52.153146 22.31209425 0.38178825  53.39065675000001 21.28231025 0.46501575  52.0573235 21.415946 0.445838  54.68577425000001 21.4992505 1.98236425  55.333333 21.74561325 1.86178025  54.03821550000001 21.13301625 1.4169845  54.68577425000001 21.379379 1.2964005  55.333333 21.1102135 1.5624055  54.68577425000001 20.86385075 1.6829895  54.03821550000001 20.617488 1.8035735  55.333333 21.86548475 2.547744  55.333333 21.3499565 2.934333  54.68577425000001 20.98372225 2.36895325  55.333333 21.230085 2.24836925  55.333333 20.3189 3.707511  55.333333 20.1990285 3.02154725  54.68577425000001 20.468194 2.75554225  55.333333 20.71455675 2.63495825  54.68577425000001 20.3483225 2.0695785  55.333333 20.59468525 1.9489945  55.333333 20.079157 2.3355835  55.333333 20.83442825 3.320921999999999  55.333333 19.839414 0.963656  54.68577425000001 20.1085795 0.697651  54.68577425000001 20.228451 1.38361475  54.68577425000001 20.74397925 0.9970257499999999  54.03821550000001 21.01314475 0.73102075  54.03821550000001 20.4976165 1.11760975  54.03821550000001 20.377745 0.431646  55.333333 19.9592855 1.64961975  55.333333 20.47481375 1.26303075  53.39065675000001 20.6469105 0.165641  53.39065675000001 20.766782 0.85160475  50 16.870809 1.259805  51.29787025 16.48211575 1.71132575  50.66648225 16.984103 0.9433560000000001  50.6312035 17.18356775 1.6575165  51.262407 17.4963265 2.055228  51.9643525 16.59540975 1.39487675  51.92907375 16.7948745 2.10903725  51.29768575 17.29686175 1.3410675  51.3329645 17.097397 0.626907  52.5957405 16.0934225 2.1628465  50.66666675 16.169357 1.31361425  51.33333349999999 15.467905 1.3674235  51.96453699999999 15.78066375 1.765135  51.333149 16.282651 0.9971652500000001  52.666667 14.065001 1.475042  52.6664825 14.879747 1.10478375  52.63120375 15.07921175 1.81894425  52.00000025 14.766453 1.42123275  51.99981575 15.581199 1.0509745  52.63101924999999 15.89395775 1.448686  52.666298 15.694493 0.7345254999999999  52.524814 18.121844 2.850651  52.56009275 17.92237925 2.1364905  52.56027725 17.10763325 2.50674875  51.89361049999999 17.80908525 2.4529395  51.92888925 17.6096205 1.738779  52.595556 16.9081685 1.79258825  52.5953715 17.7229145 1.42233  52.665929 17.323985 -0.005991  52.63065025 17.52344975 0.7081695  52.63083475 16.70870375 1.07842775  51.964168 17.41015575 1.0246185  52.66611349999999 16.509239 0.36426725  51.99963124999999 16.395945 0.68071625  51.99944675 17.210691 0.310458  55.333333 15.9308405 6.203203  54.66666725 15.3761695 6.08428575  53.99999975 16.03678125 6.18317625  53.99999975 16.167154 6.86408175  54.66666725 15.50654225 6.76519125  52.66666650000001 16.142722 6.163149499999999  53.33333400000001 15.48211025 6.064259  54.0000015 14.8214985 5.9653685  55.333333 15.670095 4.841392  54.66666725 15.115424 4.72247475  53.99999975 15.77603575 4.821365249999999  53.99999975 15.9064085 5.502270749999999  53.33333400000001 15.3517375 5.3833535  52.66666650000001 16.01234925 5.482244  52.66666650000001 15.8819765 4.8013385  53.33333400000001 15.22136475 4.702448  54.0000015 14.560753 4.6035575  54.66666725 15.24579675 5.40338025  54.0000015 14.69112575 5.284463000000001  55.333333 15.80046775 5.522297500000001  50 16.093858 4.761285  50.6666675 15.43324625 4.6623945  51.33333325 15.98791725 4.78131175  51.33333325 16.11829 5.46221725  52.00000075000001 15.45767825 5.36332675  52.00000075000001 15.3273055 4.68242125  51.33333500000001 14.7726345 4.563504  52.66667 13.451411 4.365723  52.00000250000001 14.11202275 4.4646135  52.66666825 14.66669375 4.58353075  52.66666825 14.7970665 5.264436249999999  53.33333575 14.006082 4.48464025  53.33333575 14.13645475 5.16554575  54.78159675000001 24.74696225 -2.21734575  54.2298605 24.487514 -1.77443525  54.2298605 23.739218 -1.821265  54.2298605 23.9554625 -2.3064865  54.78159675000001 23.99866625 -2.2641755  55.333333 25.0064105 -2.66025625  54.78159675000001 24.21491075 -2.749397  55.333333 24.2581145 -2.707086  55.333333 24.474359 -3.1923075  55.333333 23.410256 -4.25641  54.78159675000001 23.68285925 -3.28144825  55.333333 23.1940115 -3.7711885  55.333333 23.9423075 -3.72435875  54.78159675000001 23.46661475 -2.79622675  55.333333 23.726063 -3.23913725  55.333333 22.977767 -3.285967  54.78159675000001 23.25037025 -2.31100525  55.333333 22.7615225 -2.8007455  55.333333 23.5098185 -2.75391575  53.67812425 24.22806575 -1.33152475  54.25009725 25.278984 -2.21682375  53.698361 25.01953575 -1.77391325  53.698361 24.48748425 -2.3059645  53.1668615 25.019506 -2.3054425  54.8018335 25.53843225 -2.65973425  54.27033400000001 25.5384025 -3.1912635  53.71859775 25.27895425 -2.748353  54.25009725 24.7469325 -2.748875  54.8018335 25.00638075 -3.1917855  54.8018335 23.94227775 -4.255888000000001  54.25009725 24.214881 -3.28092625  54.8018335 24.47432
[...]
<PointData  Scalars="c_HbCO2"> 
<DataArray  type="Float64"  Name="c_HbCO2"  format="ascii">3.6124022126445437e-27  4.0245061186639978e-27  4.6937698689990570e-27  3.5504052928851767e-27  3.6258215974020141e-27  3.5791590742401852e-27  3.5634625628915915e-27  3.4016597524288127e-27  3.4229698626210393e-27  3.6306877569134822e-27  2.5010952159947966e-27  3.6427664018378000e-27  3.5849437262753039e-27  3.3597145838639738e-27  3.5378851528706708e-27  3.6403843270115817e-27  3.9074173548943179e-27  3.7077362959690404e-27  3.5479231762742696e-27  3.6398254980532537e-27  3.5164059842212726e-27  3.8028561911697690e-27  3.6076787510988926e-27  3.5195394319902778e-27  3.6230782719960818e-27  3.7022741026968704e-27  3.5139868178585894e-27  3.7671796658380495e-27  3.5792255953031158e-27  3.6474912757571070e-27  3.6264042102580089e-27  3.8846179649804463e-27  3.6687829706221645e-27  3.6961937352922688e-27  3.8149216002815126e-27  3.1072990243873031e-28  2.1160137996668738e-27  -1.0078634809556152e-27  3.5202053745083559e-27  4.0918644680453298e-27  4.2242901562963922e-27  3.5883829976898615e-27  4.2194291101250702e-27  3.2955050391088012e-27  3.4003729146981164e-27  3.6783495152722162e-27  3.3319337683444585e-27  3.5564377448883982e-27  3.7066549475059053e-27  3.3059628011734134e-27  3.7365028477760492e-27  3.7563889370709373e-27  3.8892835707081368e-27  3.5698898397317174e-27  3.2452623188028074e-27  3.1865015468172866e-27  3.6870491441185648e-27  3.5283281744979447e-27  3.6105147179315098e-27  3.6999098159896771e-27  3.5739332964379202e-27  3.3812412784301611e-27  3.2648835364311324e-27  3.4001349263327204e-27  3.6612031466461678e-27  3.3623479860155143e-27  3.5477993300710585e-27  3.6309544579024228e-27  3.9100919471728372e-27  3.5140677707483512e-27  3.5972640737951695e-27  3.5879787080057826e-27  3.6148637181132948e-27  3.5976166754567308e-27  3.6355371399464648e-27  3.7006987307406610e-27  3.5313833667934507e-27  3.5831779898230751e-27  3.4419230363241879e-27  3.5046153055331701e-27  3.5928134067045485e-27  3.5214992516048072e-27  3.4591545286344136e-27  3.9536238159426502e-27  3.4839798343146136e-27  3.2906563113863111e-27  3.4562677013784217e-27  2.6261220567323318e-27  3.4022175261607457e-27  4.1333070380263616e-27  3.7775973521740248e-27  4.0948232604877454e-27  3.5382086314625634e-27  3.6859495935873519e-27  3.5653072001451099e-27  3.6183798217256824e-27  3.6167380081137887e-27  3.6173827904728925e-27  3.6143610654512045e-27  3.6173882794567914e-27  3.6161966713272453e-27  3.6188629056731475e-27  3.6160606507962963e-27  3.6161922529137552e-27  3.6189100486644813e-27  3.6254828355351462e-27  3.6284560423579460e-27  3.6124621064236768e-27  3.6148953696370869e-27  4.0388229722616807e-27  8.9709521683639123e-28  3.5305938664267774e-27  -1.3154019843768192e-28  4.5669376188653574e-27  3.1538372349224021e-27  3.6568074501731307e-27  3.7667719240909381e-27  3.2484336812811621e-27  3.9872371983604186e-27  3.5660304157591822e-27  3.4658163463602376e-27  3.8341729786113675e-27  3.4934765528265745e-27  3.7614579399212015e-27  3.4702684037027446e-27  3.3923433999885158e-27  3.5459086715354931e-27  3.6926013623644024e-27  3.6905337392816847e-27  3.6764830224720108e-27  3.4804768454713165e-27  3.4117382577651309e-27  3.5198961598788908e-27  3.7493669501787125e-27  2.9448019656441127e-27  3.1486460032495404e-27  3.6909354062847148e-27  3.7473048965959632e-27  3.5935358065599158e-27  3.4529494016597166e-27  3.3462315601924468e-27  3.4454614406795766e-27  3.2254054025272565e-27  3.4692487272649168e-27  3.9978819185712239e-27  3.8137184663754823e-27  3.5774153919186218e-27  3.5479239653833820e-27  3.6949518581919616e-27  3.7785187984380276e-27  3.6209268937569865e-27  3.5294189277646883e-27  3.2952502923189554e-27  4.1023908839008228e-27  3.4700766388900411e-27  4.0478460169387188e-27  3.4189827924277694e-27  4.0178507320553988e-27  3.4679826571176557e-27  3.7038585771559754e-27  3.5750521563792992e-27  3.6447147470809994e-27  3.6038212014733776e-27  3.6393600003923295e-27  3.5747213288720955e-27  3.5568480637217851e-27  3.7430667531220031e-27  3.6673524104880299e-27  3.5378288457320203e-27  3.7085805892476041e-27  3.6632787963148812e-27  3.7314294428088782e-27  3.2894108004129057e-27  3.4938432936656060e-27  3.6372539534087534e-27  3.5895148929679770e-27  3.5641102428607940e-27  3.5907606939070167e-27  3.5985199952761922e-27  3.5409197373545254e-27  3.5395037989525681e-27  3.5097954787550786e-27  3.6506139869088127e-27  3.6950792479559921e-27  3.3662303901800421e-27  3.4510094512713981e-27  3.7342987607253155e-27  2.8686410177497679e-27  3.3933073718973007e-27  3.9795129166789786e-27  4.0169755366837110e-27  3.2449154256371876e-27  3.1802619217528392e-27  4.0898147998629947e-27  3.6568685858972306e-27  3.6353653245861152e-27  3.5630828884634872e-27  3.4251954760444970e-27  3.5564630698366823e-27  3.5607364536910761e-27  3.5802037972122222e-27  3.5717762279341695e-27  3.5866245021702765e-27  3.5239361665378647e-27  3.5661938939342208e-27  3.4920469596736596e-27  3.5984441438677878e-27  3.6139234490929779e-27  3.5041314365651254e-27  3.5139331895884769e-27  3.7269909695988277e-27  3.5038002977494181e-27  3.7060190335243155e-27  3.5320836113308663e-27  3.4253230669253934e-27  3.8721387023290662e-27  3.5464454027343219e-27  3.5701946142861942e-27  3.7023247064759367e-27  3.7148578737006962e-27  3.2640124916889131e-27  3.7040293281551782e-27  3.5983725294487966e-27  3.4155323331169156e-27  3.5477114998238016e-27  3.3296271576731266e-27  3.3998106566886328e-27  3.9308701466978656e-27  3.8291028420426443e-27  3.9109427945057567e-27  3.5833636439863844e-27  3.5373624031534956e-27  3.3278156493132174e-27  3.2706688062371421e-27  3.2913640497227588e-27  2.5970565386240897e-27  3.9377761674009127e-27  3.8369021457340803e-27  3.9957881065086599e-27  3.6245532821606042e-27  3.5745117434716003e-27  3.4588006344330094e-27  3.5706046861824332e-27  3.7419841279213239e-27  3.4667752828079133e-27  3.7691666185067856e-27  4.1835852588785253e-27  4.1485886732896183e-27  2.4961623240624287e-27  3.8378163416141383e-27  3.5513284569581892e-27  3.5986190688425396e-27  4.6896644279785623e-27  3.7027691053555098e-27  4.2333375158254970e-27  2.1368279002381329e-27  3.4730143903322319e-27  3.3840288377798287e-27  3.9658081011610932e-27  3.5412317372838133e-27  3.5564591808368479e-27  3.2384695911434818e-27  4.1255235901838830e-27  3.8992376271513141e-27  3.5825941813113799e-27  3.8993151441485245e-27  3.5947182445151271e-27  4.0534130473239938e-27  3.3507702429271384e-27  3.7043644244011872e-27  3.1241483366408114e-27  3.3357637979898117e-27  3.8311742730319142e-27  3.6758060891815296e-27  3.5573017990186090e-27  3.4214252125207218e-27  3.5974183867002225e-27  4.0134223327533416e-27  3.6289961145339417e-27  3.1411415160183487e-27  3.3867517063755426e-27  3.5906930865737779e-27  3.8934259707903328e-27  3.4347469574554993e-27  3.7272870743410668e-27  3.9112858513930701e-27  3.6524701530968351e-27  3.6017215385797844e-27  3.5211875241061092e-27  3.4797258124697862e-27  2.8846764749834037e-27  1.9195882391094112e-27  6.6866271051795184e-27  4.2609042466474361e-27  1.5336990677862493e-27  4.7691004830680434e-27  2.3223135534657431e-27  3.3421145032868678e-27  3.9408550118621611e-27  3.6064139064225400e-27  3.5469190364732400e-27  3.4399913105689790e-27  3.4993007093958191e-27  3.8675813941444801e-27  3.1058574489502567e-27  3.7069069453810616e-27  3.6114141804675248e-27  3.7677461692576831e-27  3.7190635920611866e-27  3.4717986847658628e-27  3.6955480452924872e-27  3.3126324676358572e-27  4.2827843934808141e-27  3.4502971280797635e-27  3.3116169666122202e-27  3.6226072448337570e-27  3.7211037054127949e-27  3.7478890825100538e-27  3.6964049644649222e-27  3.5169153436726809e-27  4.2853441432058743e-27  3.3783458686413718e-27  3.3775475172316811e-27  4.3810194633072940e-27  4.0575281368965104e-27  3.8953996971003722e-27  3.7276901844437172e-27  4.2944745085581758e-27  3.5857010646185335e-27  3.6103475503645681e-27  3.7253793185121295e-27  3.5984249223182825e-27  3.5167880619200531e-27  3.6534063406483937e-27  3.7917986631201471e-27  3.6622910975599157e-27  3.6975215451327600e-27  3.7059931001489968e-27  3.6183384125880622e-27  3.6584250283601905e-27  3.4621143150106090e-27  9.0989516626949591e-28  2.1269876880487948e-26  1.5603001094796199e-27  -1.9737716537486996e-28  1.0796401328721936e-27  3.9231841267400178e-27  3.9279220075493957e-27  2.2275034977193742e-27  7.5254361697711579e-27  4.2236929942471837e-27  7.3573286907544851e-28  1.0542125728126861e-27  2.0943432741309549e-26  4.0368934830581653e-27  3.4474733156426807e-27  3.3577509697153357e-27  2.7423753033115707e-27  3.9324147898204933e-27  3.5207548984953355e-27  3.5593501582135439e-27  7.0905747270754431e-27  6.6481648105733473e-27  3.6372931100092046e-27  3.4930404516229020e-27  3.6166135920643753e-27  3.6180122905851350e-27  3.6161867070833535e-27  3.6167834415622194e-27  3.6128663994678186e-27  3.6147712323670808e-27  3.6233511062156888e-27  3.6124779905290567e-27  3.6113433074431637e-27  3.6151636313761112e-27  3.6177352559288399e-27  3.6176963598658283e-27  3.6145473543600362e-27  3.6185365048394018e-27  3.6128606127825431e-27  3.6236004599140331e-27  3.6159376751864457e-27  3.6130638397046990e-27  3.1021490757652060e-27  4.7496616663645168e-27  3.5250798032584851e-27  3.7929364959532501e-27  3.6971522483961412e-27  3.4115342406456752e-27  3.6909246754681650e-27  3.7073829925606450e-27  3.2922745158951517e-27  3.4622486076502005e-27  4.9142236811073430e-27  2.7701294813365019e-27  4.0932506888791852e-27  3.2410602233964631e-27  3.9249684962434806e-27  3.0936665078128924e-27  -1.2107484170383048e-27  1.9270090228243916e-27  4.0052732252496893e-27  2.5602953158750745e-27  3.4202975641481747e-27  3.0701596940226072e-27  8.9107450072884344e-29  5.0074929170900003e-27  2.5203080950787228e-27  -2.8584122941847645e-28  3.6271773476371368e-27  3.5223627227446537e-27  3.6632659576872134e-27  3.8725523579901098e-27  2.7915817401003879e-27  4.1437006275441128e-27  3.6063396973100275e-27  3.7896365984891972e-27  3.5656132324525743e-27  3.5126436515064663e-27  3.9482636946742081e-27  3.5506665763098200e-27  3.7800715049875301e-27  4.1897282663523751e-27  3.4797371361004688e-27  3.2278628053296810e-27  4.0265883202849045e-27  2.8330171223545732e-27  3.4883817545188660e-27  2.7620914309798448e-27  3.6361581858185729e-27  3.7064804206338005e-27  3.9022355454075462e-27  3.6433910033496715e-27  3.7648237767671854e-27  3.5213387745251798e-27  3.5842228949486405e-27  3.7479518855689907e-27  3.8103914325356685e-27  3.6179556081128918e-27  3.3986742634096714e-27  3.3962702096365003e-27  5.7622795713667592e-27  6.3559060765736057e-27  2.9542142729379066e-27  3.6388996925193916e-27  3.8161409817400831e-27  3.3626359987403831e-27  3.4782020756362293e-27  3.2900222284241706e-27  3.8639765634408819e-27  3.3313343600367353e-27  3.2362703626364811e-27  4.5051503171137504e-27  3.4074948748120255e-27  3.3215158045313599e-27  4.7589275109451823e-27  3.2934941758303090e-27  3.8443607373939938e-27  3.6882232395038730e-27  2.9738138735814474e-27  2.7131406330968769e-27  3.8546433247982664e-27  3.2477572705652317e-27  3.1706470465671238e-27  3.1207360406458744e-27  4.1520145525599133e-27  3.8385384419088461e-27  3.6265766760829861e-27  3.2374400091997928e-27  3.6167466389026402e-27  3.9346727610071181e-27  3.4682768205090315e-27  3.6619926657565376e-27  3.4858606042988703e-27  3.6151680186149121e-27  3.6491943504847955e-27  3.8120288838822686e-27  3.6272956909988888e-27  3.6762792212799038e-27  3.6171895908778743e-27  3.8189424919317258e-27  4.3037343494580197e-27  3.3161338433312183e-27  3.9342508978235214e-27  3.4770435681320167e-27  3.3731693988360824e-27  3.5402416057129864e-27  3.8232627326897653e-27  3.4547753446183256e-27  3.6388975678433203e-27  3.3335152610710583e-27  3.2887014060483951e-27  3.6420727970183831e-27  3.4055835468723449e-27  3.7695691913401985e-27  3.6447739155180509e-27  3.7308674438852206e-27  3.3817296633590893e-27  3.3617737892150159e-27  3.7094653253603774e-27  3.7510061559977414e-27  3.4795440746014809e-27  3.5208771910978562e-27  3.6876528843330315e-27  3.2959070166300775e-27  3.6520504742288615e-27  3.5598269666779239e-27  3.7445517621269487e-27  3.7677866062459564e-27  3.8455122167829453e-27  4.3687789049986605e-27  4.2179438694509199e-27  2.9290960134423186e-27  3.1176583166328902e-27  2.8712332785259547e-27  3.2205485763414055e-27  2.2123823685042926e-27  2.9834801270871028e-27  7.0340229166198524e-27  7.7729117542809815e-27  4.6696446855833074e-27  3.6186522936925668e-27  3.6005364682033890e-27  3.6452304268481343e-27  3.5892800490805506e-27  3.6207240898230188e-27  3.6956462482906565e-27  3.6439255427791798e-27  3.5916259462601002e-27  3.6293864063742254e-27  3.6477151169900814e-27  3.5953926519678847e-27  3.6593515299732771e-27  3.6400156591145560e-27  3.6235292103149713e-27  3.5904163042390125e-27  3.6123362307186798e-27  3.6115609802016543e-27  3.5372902692891319e-27  3.6712813934876508e-27  3.6475757948942520e-27  3.6705247793832536e-27  3.6934548222150821e-27  3.5539240061932161e-27  3.6719934515046103e-27  3.7427133281819702e-27  3.6322730481715394e-27  3.5995391732651111e-27  3.7249064694303282e-27  3.5473356347443165e-27  3.6274001761738510e-27  3.6701867950995779e-27  3.6956756235284652e-27  3.5248534512550231e-27  3.5820213262330148e-27  3.6139807251109379e-27  3.6173613460927512e-27  3.6170907263379445e-27  3.6086017426382317e-27  3.6269391643138869e-27  3.6135453144638289e-27  3.6158125192930589e-27  3.6215168926766109e-27  3.6143263341657232e-27  3.6168885912394689e-27  3.6164408911849117e-27  3.6177123744417907e-27  3.6242419596971359e-27  3.5354064382979566e-27  3.5816964333385967e-27  3.7329727078593090e-27  3.7635163170148624e-27  3.5978281201792638e-27  3.6907936979644988e-27  3.7537325012145233e-27  3.6446006811710014e-27  3.5951520254711033e-27  3.6106310439352946e-27  3.5603637129910739e-27  3.5707361210229278e-27  4.0045223815733709e-27  3.3997102056590568e-27  3.5055112379266546e-27  3.5681360679633508e-27  3.5850821659468799e-27  3.7704607208365103e-27  3.8981710227917906e-27  3.6823249499400464e-27  3.6733101378024582e-27  3.5363727185525876e-27  3.5207734364133151e-27  3.5968756438398874e-27  3.5082681020550172e-27  3.6037176399605912e-27  3.6433787707383780e-27  3.4977851066372528e-27  3.5524757540436339e-27  3.7403632641145227e-27  3.7106819959971751e-27  3.6398749694320104e-27  3.7514001842076795e-27  3.5249665490994308e-27  3.6193439510947832e-27  3.0482366737436114e-27  3.7309285694071158e-27  3.5809507166777981e-27  3.5649644648610715e-27  3.5794155685946397e-27  3.6919781884935660e-27  3.5749758663996557e-27  3.7119291970489588e-27  3.6566073939949733e-27  3.7857067180874931e-27  3.6695870039417139e-27  3.6264727292738188e-27  3.7499487703868525e-27  3.6133290808855459e-27  4.4314748465498412e-27  3.5137753319423828e-27  3.7203065032893091e-27  3.4653758162487022e-27  3.6228546943004532e-27  3.6655363138826069e-27  3.5375948192818380e-27  3.5775108557552256e-27  3.6623273522924224e-27  3.6811609046899138e-27  3.5357681579172578e-27  3.5847784114760771e-27  3.3570532724367905e-27  3.7658024174871254e-27  3.6196712314263710e-27  3.6097222701833585e-27  4.1796774222004994e-27  3.4652064661619246e-27  3.7392688843201926e-27  3.6162207414057517e-27  3.5721746550487042e-27  3.5941920523909391e-27  3.8088969413837583e-27  3.9192125813409184e-27  3.6344910526611585e-27  3.5277587884120152e-27  3.1066461846270713e-27  3.4033242232874721e-27  3.5695264849565958e-27  4.3718425557686363e-27  4.6001936455992630e-27  -1.6988042906710162e-28  5.8004094562285093e-27  4.4680833893379177e-27  9.6847891181812779e-28  3.7944391992466191e-27  2.9838694575862448e-27  -3.8707910282368323e-27  3.9630005733421144e-27  1.4030940021496644e-27  6.5732783242882054e-27  3.0617368804741896e-27  8.6929036017741843e-28  3.8044103253132316e-27  3.3489857552572093e-27  1.4188122045504738e-27  4.2692805386840177e-27  3.6073126323504815e-27  4.1132836399713931e-27  4.0511933762230809e-27  1.6933733311022953e-27  3.0786827056552765e-27  2.7304725311618855e-27  3.6059192458379742e-27  3.4601950668989387e-27  3.7444532733234811e-27  3.7227100636973764e-27  3.6228242427998102e-27  3.4601929758525741e-27  3.8345599569516139e-27  3.0442970378866484e-27  3.6963957733389849e-27  3.4983126610502549e-27  3.4862949120148818e-27  3.6524450548364622e-27  3.6002648867269401e-27  3.6606457494875206e-27  3.6080314518306679e-27  3.5299687407476801e-27  3.7083353856873295e-27  3.4466264345061851e-27  3.5518697719628811e-27  3.2911243980640560e-27  3.6476578787375328e-27  3.6582007521135957e-27  3.0640296311466032e-27  3.8714667107751884e-27  3.6234122112364911e-27  3.4999688785610442e-27  3.5492051608415360e-27  3.6273914171622493e-27  3.5330156344850526e-27  3.6510351323607684e-27  3.4318669540004653e-27  3.4776065464168877e-27  3.2396015631590207e-27  4.8013089674378137e-27  3.9480392898503244e-27  2.4521265324746584e-27  3.2869054309524433e-27  4.2960085849973096e-27  3.9339552806779698e-27  3.7778100194197931e-27  3.5848309562697252e-27  3.2506693214650622e-27  3.3789142121933039e-27  3.8475908212653913e-27  3.7780324378274151e-27  3.5835556929261931e-27  4.3649444459531580e-27  3.1422253901543499e-27  3.7135780623112497e-27  3.8893884380542814e-27  3.3900124974347081e-27  3.6595159509566039e-27  3.2791191248511759e-27  3.7311540396816655e-27  3.9895666625601667e-27  4.1614620650926935e-27  3.5760040856090252e-27  3.5845905159992918e-27  3.6127310046237945e-27  3.6228853138788862e-27  3.6143443253422804e-27  3.6107198146363462e-27  3.6177103709159425e-27  3.6136561746226116e-27  3.6202454315764544e-27  2.9753131862139642e-27  -1.1143259146584160e-28  3.1069455474921931e-27  4.0862994193172340e-27  3.2387941691728881e-27  4.3450516477171171e-27  4.0346435979345643e-27  3.5325301772589487e-27  3.4490417989820146e-27  3.7962595615740550e-27  3.4986210758235853e-27  3.7866680570421524e-27  3.4178803130989080e-27  3.4866089848318047e-27  3.5594783864688206e-27  3.3810281608182294e-27  3.6829536743884730e-27  3.5464532864685094e-27  3.6150197018649792e-27  3.6388209925853749e-27  3.6954891357514400e-27  3.6615832200395401e-27  3.6015434711251529e-27  3.5773103316138821e-27  3.6198593553157760e-27  3.6377207385058497e-27  3.6282340713741370e-27  3.6081571396710161e-27  3.5627704500076920e-27  3.6224387424267135e-27  3.6433926413578207e-27  3.5195123656886358e-27  3.5588887900463224e-27  3.5908624227752817e-27  3.5943196049861137e-27  3.5964167429676829e-27  3.6528103306114342e-27  3.6364469419358423e-27  3.6678444709248237e-27  3.6071412983469425e-27  3.6918165702779058e-27  3.6045523080117713e-27  3.5717985630355605e-27  3.6083691511748523e-27  3.6467654474486821e-27  3.6229302358798059e-27  3.6374097066660695e-27  3.6445405588761044e-27  3.6462459503738929e-27  3.4781403997731209e-27  3.1715570315574622e-27  3.5392127378396000e-27  4.0424322883549538e-27  3.5044307608837036e-27  3.5187566614791981e-27  3.7453959123039281e-27  3.6369983150681401e-27  3.4980668473988836e-27  3.6970996967132977e-27  3.7669030898100833e-27  3.5296774795884677e-27  3.5061888160851891e-27  3.7248522872058275e-27  3.6498327219961638e-27  3.5735417617927236e-27  3.6605874156526019e-27  3.7187219236194670e-27  3.6091889983900302e-27  3.5511053594200786e-27  3.4924415002902895e-27  3.5324990746982312e-27  3.7416769190376816e-27  3.6026154942244438e-27  2.3640312079457702e-27  4.2722612013824446e-27  3.5393618001423092e-27  3.9986498270941434e-27  2.9167368904588366e-27  3.5147164138464278e-27  3.6154199229214191e-27  3.3641966452620983e-27  3.7497033715634363e-27  3.6894148703594363e-27  3.6829118071356762e-27  3.5754620593578481e-27  2.7855746356914238e-27  4.1793314003503871e-27  3.7376137598822803e-27  3.8279536783429498e-27  3.5090750018850775e-27  4.3279975925339436e-27  3.6394034085249352e-27  3.9152331513098334e-27  2.8089402846721958e-27  3.459