<?xml version="1.0"?>
<VTKFile type="UnstructuredGrid"  version="0.1"  >
<UnstructuredGrid>
<Piece  NumberOfPoints="6542" NumberOfCells="26881">
<Points>
<DataArray  type="Float64"  NumberOfComponents="3"  format="ascii">-36.184742 40.443606 6.371652  -33.697859 38.9618375 6.3403035  -34.76184 38.960447 5.277713  -33.7212745 40.0013585 5.277367  -35.120761 40.4449965 7.4342425  -34.05678 40.446387 8.496833000000001  -32.6572935 40.002749 6.339957500000001  -31.257807 39.559111 4.183082  -32.2983725 38.5181995 4.183427999999999  -33.338938 37.477288 4.183774  -29.796041 44.702569 8.501390000000001  -28.4468235 43.16604049999999 7.387136  -29.48595 43.1735345 6.3405155  -28.4450745 44.216838 6.3380875  -27.094108 43.731107 4.174785  -27.095857 42.6803095 5.2238335  -28.1349835 42.6878035 4.177213  -29.175859 41.6445 4.179641  -28.1367325 41.637006 5.2262615  -27.097606 41.629512 6.272882  -25.536674 46.832073 10.631253  -25.30125 44.2071445 9.491606000000001  -26.601114 44.706503 11.692383  -26.601494 45.768683 10.6298235  -27.666314 44.705293 10.628394  -25.019235 41.618303 8.362462000000001  -23.981312 41.6120275 9.406660500000001  -22.9397875 42.657374 9.4028385  -25.2775745 43.163008 10.559417  -23.9777105 42.6636495 8.358640000000001  -34.059126 38.320595 10.620279  -31.591264 36.8461415 10.562595  -32.6570045 35.781125 10.56187  -32.656203 36.8447165 9.4990805  -32.99498850000001 37.2584285 12.746583  -32.994187 38.32201999999999 11.6837935  -34.0599275 37.2570035 11.6830685  -34.060729 36.193412 12.745858  -31.929248 38.323445 12.747308  -31.25328 35.368838 8.377882  -27.666297 42.580263 12.75344  -27.411165 39.9836605 11.6051745  -26.3454995 41.0475195 11.606981  -27.3830835 41.05508 10.5618365  -28.7319625 41.516404 12.7516335  -29.797628 40.452545 12.749827  -28.448749 39.991221 10.56003  -27.09987 39.529897 8.370233000000001  -26.062286 39.52233649999999 9.4153775  -25.024702 39.514776 10.460522  -31.926435 42.574822 8.498744  -29.487243 41.06132599999999 8.451430500000001  -30.5526605 39.9971275 8.4502115  -30.552058 41.059954 7.387988  -30.8622225 41.5133675 10.62441  -30.86162 42.576194 9.562186499999999  -31.9270375 41.5119955 9.5609675  -31.92764 40.449169 10.623191  -29.796805 42.577566 10.625629  -29.177681 39.545086 6.277232  -34.054731 42.571958 6.373311  -31.592121 41.0669665 6.340913  -32.65626899999999 41.0655345 5.2781965  -32.9916075 41.5106045 8.4977885  -32.990583 42.57339 7.4360275  -34.0557555 41.50917250000001 7.435072  -29.5120205 42.10216699999999 7.385813000000001  -28.4472055 42.103539 8.4492555  -28.1376435 40.587299 6.275057  -28.4483375 41.0537315 9.497931000000001  -27.40802 42.09793449999999 9.4940455  -27.098738 40.5797045 7.321557500000001  -26.0584205 41.6239075 7.317672  -26.0595525 40.5741 8.3663475  -30.551147 42.109661 6.3391925  -29.17677 40.594793 5.2284365  -26.342766 42.099283 10.557951  -26.3427745 43.161798 9.495428  -27.6663055 43.642778 11.690917  -28.731551 42.5789145 11.6895345  -28.7315595 43.6414295 10.6270115  -31.6172305 39.9957365 7.3870325  -32.99221 40.447778 9.560012  -35.1197365 41.50778200000001 6.3724815  -31.5922165 38.9553755 8.452408  -32.6567865 38.9539845 7.389229  -31.256793 37.461582 6.281625  -30.217237 38.503334 6.2794285  -27.666328 46.830003 8.503669  -26.3377335 46.32561099999999 6.3366555  -25.2969365 46.3226245 7.380439  -25.273184 47.389033 6.337783  -26.6017785 47.893425 8.504796500000001  -25.009139 45.821219 4.169642  -31.6181185 37.8832515 9.49863  -32.6579595 37.8910885 8.450952000000001  -30.216952 37.453745 7.329303  -31.2550365 36.41521 7.3297535  -30.2151955 36.407373 8.3774315  -29.177111 37.445908 8.376981000000001  -27.38196 43.16740249999999 8.450638  -27.4051525 44.211252 7.3835955  -28.7311775 44.703931 9.564892  -26.340289 44.212614 8.4470975  -25.014264 43.719935 6.265801  -26.055935 42.6747235 6.269341499999999  -25.535914 44.707713 12.756372  -25.304843 42.0930075 11.6021495  -26.6006175 42.5818975 13.8174855  -26.6011055 43.643988 12.754906  -29.4873695 38.9492265 10.563404  -30.5531795 37.8846765 10.5621445  -30.5523755 38.9475385 9.500086  -30.863438 39.387995 12.7485675  -30.862634 40.450857 11.686509  -31.928444 39.386307 11.6852495  -36.189788 36.190797 10.619415  -33.69705949999999 36.850524 8.4524165  -33.721534 35.7798175 9.4986485  -34.7623905 35.785625 8.4519845  -35.124457 37.255696 10.619847  -33.334993 35.380453 6.284554  -32.2941365 35.3746455 7.331218  -36.186966 38.317347 8.495687  -34.7609795 36.8489 7.3901205  -35.123046 38.318971 9.557983  -36.188377 37.254072 9.557551  -32.295893 36.4210175 6.2830895  -25.0167495 42.66911899999999 7.3141315  -26.340296 45.274969 7.384735  -27.380218 45.280555 6.339227  -25.0117015 44.770577 5.2177215  -26.0516235 44.776163 4.1722135  -26.054186 43.725521 5.220293  -25.0219685 40.5665395 9.411491999999999  -34.762952 37.8973175 6.3397305  -36.185854 39.3804765 7.433669500000001  -35.121873 39.381867 8.496259999999999  -30.216833 40.6018055 4.1813615  -30.217744 39.5520985 5.230157  -31.2573 38.5103465 5.2323535  -33.7218795 37.8894645 7.388656  -26.3454185 39.98511999999999 12.6694615  -25.27982 41.049154 12.6710265  -27.666216 41.5178635 13.8159205  -25.534938 42.583532 14.881531  -26.6005365 41.519498 14.879966  -27.666135 40.455464 14.878401  -28.7318815 40.4540045 13.814114  -31.925023 44.700084 6.374892  -30.550441 43.172292 5.2772665  -29.5095655 44.2155955 5.2748385  -30.860532 44.70132649999999 7.438141  -27.666321 45.76764799999999 9.566031500000001  -28.7311845 45.76628599999999 8.502529500000001  -32.993383 39.384882 10.621735  -32.2978655 37.469435 5.2326995  -26.601501 46.831038 9.567461  -35.1252585 36.1921045 11.6826365  -25.275469 45.276004 8.448526999999999  -33.3369655 36.4288705 5.234164  -28.1387755 39.5374915 7.3237325  -27.666398 48.955028 6.378574  -26.3377685 47.3881235 5.274108  -27.666363 47.8925155 7.4411215  -26.6018135 48.9559375 7.442249  -29.177396 38.495497 7.3271065  -30.861238 43.6386955 8.500067000000001  -29.796423 43.6400675 9.5635095  -31.615295 42.108229 5.276476000000001  -31.925729 43.63745299999999 7.436818000000001  -32.989877 43.636021 6.3741015  -29.513755 39.98953299999999 9.496712  -28.1384905 38.4879025 8.373607  -29.7972165 41.5150555 11.687728  -34.057953 39.383491 9.558555999999999  -31.24147 43.75853 0  -32.645221 44.227992 -2.126787  -33.7099355 44.2266545 -1.06341  -32.6458485 45.2907605 -1.063391  -34.050227 46.822991 -2.126782  -34.0495995 45.7602225 -3.190178  -35.114314 45.758885 -2.126801  -36.178401 44.694779 -2.12682  -35.1136865 44.6961165 -3.190197  -34.048972 44.697454 -4.253574  -36.179487 46.820513 0  -36.179526 44.6948545 -0.001200499999999938  -36.178944 45.75764599999999 -1.06341  -37.2435895 45.7564105 0  -36.180069 45.7577215 1.0622095  -38.307692 44.692308 0  -37.24304650000001 44.6935435 -1.06341  -37.2441715 44.693619 1.0622095  -36.180651 44.69493 2.124419  -31.5811845 45.292044 -2.1267715  -32.9849355 45.761506 -4.2535585  -32.985563 46.8242745 -3.1901625  -31.920899 46.825558 -4.253543  -31.610257 44.2259455 -3.163798  -30.206506 43.7564835 -1.037011  -30.5462205 45.2899975 -3.1637825  -29.171542 43.754437 -2.074022  -29.795071 48.953198 4.251731  -27.380293 47.3909685 4.2287385  -28.4446295 47.3900535 3.165317  -27.398584 48.4367475 3.1646685  -28.7307345 48.954113 5.3151525  -26.3342475 48.4376625 4.22809  -25.002097 47.920297 2.077606  -26.0481425 46.873603 2.0782545  -27.094188 45.826909 2.078903  -21.275979 48.961101 -12.76292  -21.0768225 48.444291 -9.478887  -21.0586085 47.399152 -10.54224  -20.0122155 48.445024 -10.542761  -22.340586 48.960368 -11.699046  -23.405193 48.959635 -10.635172  -22.1232155 47.398419 -9.478366000000001  -18.748452 47.928947 -8.322602  -19.794845 46.88307500000001 -8.322081000000001  -20.841238 45.837203 -8.32156  -27.66182 46.831175 -8.507004999999999  -27.4009155 44.22689149999999 -7.372193  -26.3371105 45.2905275 -7.372362  -27.376961 45.2916525 -6.3313865  -28.725625 45.767539 -8.506836  -29.78943 44.703903 -8.506667  -28.440766 44.2280165 -6.3312175  -27.092102 43.75213 -4.155768  -26.0522515 43.751005 -5.1967435  -25.012401 43.74988 -6.237719  -23.40255 46.836311 -12.761139  -23.1920715 44.22642 -11.5815095  -22.127188 44.2276365 -12.645176  -22.1284875 45.2895635 -11.5819495  -24.4648345 44.7112405 -13.8239255  -24.466134 45.7731675 -12.760699  -23.4012505 45.774384 -13.8243655  -23.399951 44.712457 -14.887592  -25.529718 44.710024 -12.760259  -20.854425 43.742816 -10.40276  -25.532153 46.833929 -10.633918  -24.232662 45.2902985 -9.477039  -24.2273795 46.336581 -8.4360395  -23.1866955 46.335566 -9.477739  -21.8872045 44.7919355 -8.32086  -21.881922 45.838218 -7.2798605  -22.922606 45.839233 -6.238161  -22.9278885 44.7929505 -7.2791605  -22.933171 43.746668 -8.32016  -23.1638995 47.399434 -8.436666500000001  -24.468673 47.896782 -10.634545  -21.063892 45.2900435 -12.6460655  -22.3379545 46.83679100000001 -13.825255  -21.273359 46.837271 -14.889371  -22.336655 45.774864 -14.8884815  -21.081413 46.3354975 -11.5830895  -20.0168175 46.3359775 -12.6472055  -18.760276 45.834684 -10.40504  -19.8073505 44.78875 -10.4039  -22.118459 48.4445145 -8.4370265  -20.831725 47.929394 -6.238881  -21.8771655 46.8843135 -6.238521  -20.8364815 46.8832985 -7.2802205  -32.651306 42.1204615 -4.228232999999999  -31.5872475 43.184546 -4.228207  -32.652087 43.182978 -3.164935  -34.048191 43.6349375 -5.316872  -32.9833515 43.6365055 -6.380144  -32.9841325 44.699022 -5.316846  -31.919293 44.70059 -6.380118  -34.04741 42.572421 -6.38017  -31.255202 41.668502 -2.076296  -29.794872 53.205128 0  -28.730371 52.1427145 -2.049999999997887e-05  -29.794506 52.1420265 -1.0634675  -28.7305535 53.205818 -1.0636285  -27.666235 53.206508 -2.127257  -28.7301875 52.1427165 -2.127096  -29.79414 51.078925 -2.126935  -27.39707 50.5394625 -1.0634675  -29.794873 51.078952 2.126174  -29.7945065 51.0789385 -0.0003805000000001169  -27.3974365 50.539476 1.063087  -29.7948725 52.14204 1.063087  -28.
[...]
<PointData  Scalars="c_HbCO2"> 
<DataArray  type="Float64"  Name="c_HbCO2"  format="ascii">3.6202969472194454e-27  3.6219605625802191e-27  3.6230653049233035e-27  3.6253974617683181e-27  3.6151971234638401e-27  3.6186170805245389e-27  3.6213330500175300e-27  3.6109191905475048e-27  3.6171180336577803e-27  3.6125155830799055e-27  3.6218314565721764e-27  3.6210290573881730e-27  3.6214471913399805e-27  3.6171962331379456e-27  3.6005221193989738e-27  3.6257003129309204e-27  3.6226174590534267e-27  3.6084790494002265e-27  3.6207092428697241e-27  3.6136325347325586e-27  3.6346059888886137e-27  3.6159283843395236e-27  3.6135653851664929e-27  3.6046758882556626e-27  3.6214899840562489e-27  3.6141944978331399e-27  3.6185398152477914e-27  3.6242282860328228e-27  3.6201390713311326e-27  3.6264230415641489e-27  3.6182009075757890e-27  3.6207715146194080e-27  3.6217463885201583e-27  3.6204840689949148e-27  3.6168338117049561e-27  3.6155761214680989e-27  3.6224961567691926e-27  3.6182735870760466e-27  3.6177481467608978e-27  3.6182540140987326e-27  3.6179718548186031e-27  3.6169042305098061e-27  3.6181551776451037e-27  3.6184522247009973e-27  3.6205334401995130e-27  3.6169019648703133e-27  3.6184803500831984e-27  3.6167700425010019e-27  3.6207526363503115e-27  3.6167430963657250e-27  3.6186610207032296e-27  3.6194371539228282e-27  3.6190960111504927e-27  3.6193738506913823e-27  3.6170807479531735e-27  3.6148350078006342e-27  3.6198453257755575e-27  3.6177937234961830e-27  3.6175999911677715e-27  3.6159802229496793e-27  3.6208848568629334e-27  3.6208409288038434e-27  3.6218545057389869e-27  3.6162322980464151e-27  3.6140899945948725e-27  3.6190450247599122e-27  3.6190697190554268e-27  3.6180296336661400e-27  3.6199419993411967e-27  3.6186897218734902e-27  3.6171214717606163e-27  3.6171595829231849e-27  3.6192139124251825e-27  3.6207786112020745e-27  3.6202314987074421e-27  3.6203089742410709e-27  3.6168939511283340e-27  3.6208424180923374e-27  3.6184068161501726e-27  3.6145143259060389e-27  3.6183785176448361e-27  3.6196905987541841e-27  3.6151992756915769e-27  3.6127030493169467e-27  3.6201928620465187e-27  3.6202508656941459e-27  3.6168870905081924e-27  3.6187957972128766e-27  3.6358741633017059e-27  3.5949491805456237e-27  3.5994421072318308e-27  3.6524213977491112e-27  3.5721143458078650e-27  3.6169827629722726e-27  3.6188615267382803e-27  3.6208059265039409e-27  3.6212702436747982e-27  3.6159521735914990e-27  3.6192344910553710e-27  3.6174945272412148e-27  3.6198252822400704e-27  3.6167747012283054e-27  3.6166340943640684e-27  3.6123942151173847e-27  3.6063458580332762e-27  3.6258107652879073e-27  3.6217889945114091e-27  3.6171060599711473e-27  3.6152048032600569e-27  3.6144566480393657e-27  3.6192221561771316e-27  3.6192310239620419e-27  3.6186938094593557e-27  3.6169861232979474e-27  3.6152096066308942e-27  3.6208518505356083e-27  3.6193708737629469e-27  3.6227874968105346e-27  3.6218283223771765e-27  3.6246934606542024e-27  3.6168554407572696e-27  3.6180892419656470e-27  3.6219992768669546e-27  3.6190857856592140e-27  3.6233031533848373e-27  3.6162471491716644e-27  3.6240674029452663e-27  3.6193913467419961e-27  3.6239804944823322e-27  3.6346509997248027e-27  3.6263104255570588e-27  3.6403927654679746e-27  3.6377021012570548e-27  3.6159313727577540e-27  3.6167390433814999e-27  3.6237574890357480e-27  3.6207649429717739e-27  3.6161209803936649e-27  3.6181868595336375e-27  3.6220480626312126e-27  3.6194048539398203e-27  3.6214353249823471e-27  3.6177951708928651e-27  3.6185076755650590e-27  3.6200145079355550e-27  3.6185260580235420e-27  3.6164096830491815e-27  3.6166091925052694e-27  3.6152260137261466e-27  3.6213414056764192e-27  3.6219571512996818e-27  3.6242301309173722e-27  3.6135936349869888e-27  3.6128170781917088e-27  3.6064146641666320e-27  3.6166204077001238e-27  3.6223281168835304e-27  3.6158216001483407e-27  3.6172215499064871e-27  3.6269999805976610e-27  3.6189150491369229e-27  3.6208227188555906e-27  3.6565001247589452e-27  3.6909995502508584e-27  3.5756421045782193e-27  3.6513513125152124e-27  3.6160419111808615e-27  3.6157870708279095e-27  3.6165171318327121e-27  3.6243110621846136e-27  3.6175681263294353e-27  3.6137018276121120e-27  3.6178809243760567e-27  3.6191551654308470e-27  3.6187315182728039e-27  3.6213146432653798e-27  3.5557143573621909e-27  3.6329326370755045e-27  3.6052878974491593e-27  3.6013209048600203e-27  3.6282122117873562e-27  3.5886175026866560e-27  3.6089230305118903e-27  3.6229474779736227e-27  3.6120327932966156e-27  3.6258380908722714e-27  3.6118488245937639e-27  3.6089549476677163e-27  3.6352463946123793e-27  3.6150768595744048e-27  3.6354061199595603e-27  3.6108193888792189e-27  3.6311689594260405e-27  3.6382414249978084e-27  3.6150239640891093e-27  3.6816566918303403e-27  3.5898870099393594e-27  3.6149451617764022e-27  3.6235272651919843e-27  3.6401969861325332e-27  3.6261528419124911e-27  3.6210475681519025e-27  3.5680058525723387e-27  3.6246312323845234e-27  3.6300939002351921e-27  3.6430123976654010e-27  3.6612649460420350e-27  3.6296854564312242e-27  3.5500539998359265e-27  4.0032410986874479e-27  3.7007525285040936e-27  3.5484236329696859e-27  3.6537676022306093e-27  3.5437663442584973e-27  3.6657299329286206e-27  3.5621088792822999e-27  3.6505228654740529e-27  3.6542794277252429e-27  3.6909529212280742e-27  3.7477135979879397e-27  3.6273458541179176e-27  3.5844795991482182e-27  3.6322760585510851e-27  3.6182886691599664e-27  3.6338902165152157e-27  3.6272269087909333e-27  3.6090312243076987e-27  3.6211037532223796e-27  3.6165328362233399e-27  3.6006326223909001e-27  3.6094061647531403e-27  3.6046102391338257e-27  3.6336123662797454e-27  3.6167512275533538e-27  3.6137020897611433e-27  3.6319706416260205e-27  3.6138648075789927e-27  3.6049367912980947e-27  3.6099673453686089e-27  3.6216855397815569e-27  3.6216836037346032e-27  3.6021462255507795e-27  3.6336767630178131e-27  3.6322790317458688e-27  3.5956078105026233e-27  3.6074503759978826e-27  3.6523103429311697e-27  3.5958578310315330e-27  3.5882546061515707e-27  3.6488788946488842e-27  3.6028145931691088e-27  3.6635136236534888e-27  3.5698893800052174e-27  3.6276632684366650e-27  3.6142780448419936e-27  3.6333404664830495e-27  3.6055488273742037e-27  3.6097178481904658e-27  3.6026402686402420e-27  3.5779710989357911e-27  3.6533647559285964e-27  3.5464348062212383e-27  3.7357309193988956e-27  3.6218043478943950e-27  3.6725636020703931e-27  3.6287591487862803e-27  3.6215865281608639e-27  3.6107233698017184e-27  3.6121115759030453e-27  3.6205833439831096e-27  3.6147764679009064e-27  3.6194426161380188e-27  3.6189970770977518e-27  3.5918153594481549e-27  3.6503804745534093e-27  3.4712815637843792e-27  3.5807136437150232e-27  3.9271403381096672e-27  3.6716519202845293e-27  3.5583323292509097e-27  3.6439051021400988e-27  3.8722479651233136e-27  3.6198069413206563e-27  3.6160237522296798e-27  3.7440708397647574e-27  3.8134251276453940e-27  3.5173573387851891e-27  3.6318525817753010e-27  3.6292583211607187e-27  3.6111584021021307e-27  3.6278292261385063e-27  3.6465400336944154e-27  3.6711411101839342e-27  3.6193528839924062e-27  3.7278676019497011e-27  3.6037529433160527e-27  3.6226587632203499e-27  3.6023623011188507e-27  3.5758958440703523e-27  3.3960180617213368e-27  3.5752793708298584e-27  3.5218476624846539e-27  3.6213696969910809e-27  3.6170527683247527e-27  3.6197678464471540e-27  3.6149384592709038e-27  3.6166810429569629e-27  3.6214336427252357e-27  3.6202169357188745e-27  3.6041419570051434e-27  3.6230329011666175e-27  3.6140170002338390e-27  3.6348982821447676e-27  3.6310161241975072e-27  3.6272222025499293e-27  3.6099437352090774e-27  3.5821994033803836e-27  3.6542096176385232e-27  3.6446305999137510e-27  3.6065751971840142e-27  3.6037994207558752e-27  3.6045196695636469e-27  3.5977370621730212e-27  3.5987132488021594e-27  3.6430408182979037e-27  3.6189117454554518e-27  3.6241099702507089e-27  3.6316882376232607e-27  3.6396675867390833e-27  3.6183731548165952e-27  3.6308887528820126e-27  3.5837958808362316e-27  3.6202937189537838e-27  3.6021798296115629e-27  3.6493363970559259e-27  3.6624303843800112e-27  3.6915412852608112e-27  3.5365540052814825e-27  3.7466953653518647e-27  3.6203070644501962e-27  3.6600992362678033e-27  3.5961328460203295e-27  3.5973698934971039e-27  3.6079068447842985e-27  3.6678269284268465e-27  3.5853096082623145e-27  3.6372101366393421e-27  3.5948006374527906e-27  3.4543136357082521e-27  3.5753777165932027e-27  3.5613949957193470e-27  3.5513900964300903e-27  3.6297380467501470e-27  3.8494935636360789e-27  3.4590498312131076e-27  3.6301225694350096e-27  3.5449221715002318e-27  3.5477374223786274e-27  3.9912694767175766e-27  3.5403906885418552e-27  3.4346199218411826e-27  3.5128898004841380e-27  3.2647495275014747e-27  3.5239742238521406e-27  3.6426802066153444e-27  3.7870408667775517e-27  3.5770713656083981e-27  3.6139359897565279e-27  3.5968413058540072e-27  3.6201683065831052e-27  3.6936938708269277e-27  3.6445914067648867e-27  3.6697278233193537e-27  3.6771514903192778e-27  3.6204002170859017e-27  3.6210577092730570e-27  3.6123980108075186e-27  3.6215554587671643e-27  3.6133186619120648e-27  3.6287518757744983e-27  3.6134238885878986e-27  3.6068180513209497e-27  3.5706837539990881e-27  3.6152006622580844e-27  3.5707955329758403e-27  3.6275801448747122e-27  3.6515355710207314e-27  3.6381355698809462e-27  3.6158080184148103e-27  3.6341524943729104e-27  3.6285009343893044e-27  3.6066807068589039e-27  3.6217510388808018e-27  3.6144716261219574e-27  3.6056370514891389e-27  3.6033260320542144e-27  3.6156404054846412e-27  3.6048073529467242e-27  3.6457537755355143e-27  3.6965459597890971e-27  3.6108584623861011e-27  3.6035790735990978e-27  3.6142163980220273e-27  3.6078854480035316e-27  3.6162673561814870e-27  3.6073990999224498e-27  3.5812882014334921e-27  3.6158460847196895e-27  3.6499040242621057e-27  3.6370361134165228e-27  3.6497109501023340e-27  3.6412783507100444e-27  3.6877215578561820e-27  3.6002380612060391e-27  3.6123865916064124e-27  3.6222263116197268e-27  3.6396250300284350e-27  3.5297850477389382e-27  3.6164266201139161e-27  3.7121617759440572e-27  3.6175306641719411e-27  3.5715837151511426e-27  3.6873179943763606e-27  3.5119501940943991e-27  3.5627000347944235e-27  3.6026839891763612e-27  3.6348455895750554e-27  3.5851976344059393e-27  3.5930931322771707e-27  3.6244682077369152e-27  3.6114737468021612e-27  3.6051082038938888e-27  4.0334089504338123e-27  3.1654264765118814e-27  3.4954506820502249e-27  3.4458955705987055e-27  3.5576369226107621e-27  3.5423335571641406e-27  3.5457131951723072e-27  3.6551334665523303e-27  3.5429773805772238e-27  3.7141188571773690e-27  3.6265828371579842e-27  3.6282141078914675e-27  3.5952487994894029e-27  3.6316286509555531e-27  3.6129530933041268e-27  3.6316462661996856e-27  3.5803632364356208e-27  3.6205839562958520e-27  3.6310674436917037e-27  3.6403425855267163e-27  3.6046120880275684e-27  3.6120347678789755e-27  3.5949264674241138e-27  3.6200565545959250e-27  3.6301121136582024e-27  3.6287387835243741e-27  3.6290979215751775e-27  3.6242207699488070e-27  3.5493070355689770e-27  3.6374116159239805e-27  3.6676463508080885e-27  3.6342738609453897e-27  3.6201632440193624e-27  3.6169505687850298e-27  3.6278463602574982e-27  3.6224797399459489e-27  3.6139619359655092e-27  3.6053760783745903e-27  3.6229279775154903e-27  3.6007210731881093e-27  3.6116517665116618e-27  3.6242466243310524e-27  3.6338930974943172e-27  3.6274971309366247e-27  3.6167510714030311e-27  3.6228605935533019e-27  3.6272016835385995e-27  3.6263502505774085e-27  3.6150937692095304e-27  3.6785507949881492e-27  3.6898595572342271e-27  3.6639416867269881e-27  3.5658279843110424e-27  3.6200397907079490e-27  3.6206009253102812e-27  3.6165803765353559e-27  3.6226027029579661e-27  3.6163360895850731e-27  3.6230496675135786e-27  3.6139053215692382e-27  3.5997279911870897e-27  3.6291082050445238e-27  3.6386568767582184e-27  3.6278525797739664e-27  3.6211074978149134e-27  3.6144409901867875e-27  3.6189354549583032e-27  3.5948485505872948e-27  3.6471330350459789e-27  3.5584320310452903e-27  3.6572570090550452e-27  3.6374310164667848e-27  3.6074007226044134e-27  3.6284561509370247e-27  3.6135113868629255e-27  3.6058850490424302e-27  3.6155419522144170e-27  3.6031562840423572e-27  3.6262678146964862e-27  3.6133739160816585e-27  3.6145603910394650e-27  3.6306626412240859e-27  3.6106967744197772e-27  3.6018146962742719e-27  3.6118375170885205e-27  3.6560981847014631e-27  3.6246275283124680e-27  3.6691790626227496e-27  3.5664304252370651e-27  3.6044729306189352e-27  3.6010477904995146e-27  3.5811690166816334e-27  3.6203049188929801e-27  3.6280830132281282e-27  3.6089613257482547e-27  3.6239008944362952e-27  3.6138877339483907e-27  3.6176233791374665e-27  3.6194292150835627e-27  3.6195658727371393e-27  3.6137003439508897e-27  3.6174872635589815e-27  3.6172418096492217e-27  3.6183950231778652e-27  3.6152991223995789e-27  3.6178098742827147e-27  3.6205521854331470e-27  3.6170828471784468e-27  3.6140908409395050e-27  3.6365009257219827e-27  3.6273863172563628e-27  3.6823745191436862e-27  3.5870625421088366e-27  3.7136308679699283e-27  3.6314414875193816e-27  3.6366802746159183e-27  3.6499344480590366e-27  3.6560965165060801e-27  3.6145789955587304e-27  3.6518620066171583e-27  3.6481624564979167e-27  3.6798458680371054e-27  3.5787778393445104e-27  3.5745725951967895e-27  3.6798746308258070e-27  3.5934357192517588e-27  3.6485121562555927e-27  3.6637695761021117e-27  3.6887905364721928e-27  3.6463877221249384e-27  3.6802839436232850e-27  3.5131883150889364e-27  3.6219142671844672e-27  3.6651669698027042e-27  3.5899558225419196e-27  3.5817266686772305e-27  4.0147126685080858e-27  3.4911774929689061e-27  3.4326201169289157e-27  3.5698875338597244e-27  3.5551273199149473e-27  3.6287790964493737e-27  3.6600154196396181e-27  3.6258019191557996e-27  3.6285173315067536e-27  3.6166836091816569e-27  3.6197483520740596e-27  3.6166534484848603e-27  3.6328467229352428e-27  3.6191958262667733e-27  3.6989969787451646e-27  3.5984104489259638e-27  3.5909701493891327e-27  3.6256380019488040e-27  3.9106913954076437e-27  3.5305508134341763e-27  3.2836296824515562e-27  3.6328542741528526e-27  3.6219409284997596e-27  3.6076584278393769e-27  3.6157559237504022e-27  3.6325169189600491e-27  3.6312873664559709e-27  3.6066306385975642e-27  3.5724119891355589e-27  3.5962528669422944e-27  3.5962949825204855e-27  3.6262592103693642e-27  3.6183575796013666e-27  3.6267964787365873e-27  3.5096024974165258e-27  3.6257110799035878e-27  3.7120082177384395e-27  3.6086971199374877e-27  3.6199638430289493e-27  3.6210343766309797e-27  3.6225326789482828e-27  3.6199783798756218e-27  3.6096850979436753e-27  3.6084687206320840e-27  3.6092673036221077e-27  3.5931706388480913e-27  3.6411340920796095e-27  3.6200242763246557e-27  3.6202024059599566e-27  3.6279332876120607e-27  3.6138316055476396e-27  3.6126034816054289e-27  3.5738184155651827e-27  3.6518856976518684e-27  3.6084630553019956e-27  3.5912352629782864e-27  3.6553801658982436e-27  3.6345246604692470e-27  3.5995158860969337e-27  3.6151121361936096e-27  3.5686036261396915e-27  3.5552354416201143e-27  3.7110390033246704e-27  3.6484356475504770e-27  3.6333059613852032e-27  3.6167619056154261e-27  3.6133483303495667e-27  3.6134963476410295e-27  3.6101332452389879e-27  3.6201580289952198e-27  3.6280922895930934e-27  3.6111899110591260e-27  3.6295531767313245e-27  3.6147110092048460e-27  3.6198901407858054e-27  3.6276988200596027e-27  3.6164011422644262e-27  3.6138361147701826e-27  3.6200912053459479e-27  3.6234466785463532e-27  3.6169437130608165e-27  3.6227369722324084e-27  3.9777951125528437e-27  3.6165691894212478e-27  3.6134518425507454e-27  3.6227768364750197e-27  3.6188255258535455e-27  3.5488924198114781e-27  3.6639482114345148e-27  3.6121644842989386e-27  3.6582074212017821e-27  3.5667193858572213e-27  3.5771902612342264e-27  3.6084192810780210e-27  3.6170822728929375e-27  3.6227204684147056e-27  3.6170721513859385e-27  3.5810798329159420e-27  3.6218704147916508e-27  3.6062563171962066e-27  3.6188162564144275e-27  3.6177466165408898e-27  3.7177027262203060e-27  3.5953734013731853e-27  3.7012416143245118e-27  3.6322550967800807e-27  3.3872785400722629e-27  3.6274396072088151e-27  3.6246621698515902e-27  3.6124483470215673e-27  3.6165793723759964e-27  3.6188673707238135e-27  3.5040657078745480e-27  3.7602121666549956e-27  3.6389945308452074e-27  3.6211741112243200e-27  3.6084737741090331e-27  3.6276807028889627e-27  3.6511277630719527e-27  3.6138797224041489e-27  3.6583756892219790e-27  3.6418651540841973e-27  3.6199341631767573e-27  3.6292195491837675e-27  3.6140245059317768e-27  3.7542219614356291e-27  3.6370861212060703e-27  3.6146228490401289e-27  3.5943734653094718e-27  3.6077436026904535e-27  3.6561200421582788e-27  3.5791128468105294e-27  3.6318573569816007e-27  3.6071996780454386e-27  3.6333496287550681e-27  3.5953160746384246e-27  3.6214322126743704e-27  3.6436257903216674e-27  3.5984673338196243e-27  3.6093443964430189e-27  3.6924601223861373e-27  3.6907427917849477e-27  3.5978419287680368e-27  3.6379726304517810e-27  3.6258417286866923e-27  3.6333801782159640e-27  3.6114455547428805e-27  3.6142250868308492e-27  3.6329294137955698e-27  3.6025773485905348e-27  3.5876233017177303e-27  3.6422981129157584e-27  3.6020439344435866e-27  3.6172996242431407e-27  3.6313758900748556e-27  3.6072059071927599e-27  3.6227208094546626e-27  3.6130107232236144e-27  3.6120542720124375e-27  3.6043062213470780e-27  3.6194692408972678e-27  3.6144807597404755e-27  3.6267000456503725e-27  3.6234021787972495e-27  3.6134685341480149e-27  3.6166565345906145e-27  3.6497911135965501e-27  3.6270001366154795e-27  3.6173019166865687e-27  3.6067045102727789e-27  3.6088575631629416e-27  3.6206626461574770e-27  3.6159555466146336e-27  3.6566869181939206e-27  3.5291099490097223e-27  3.6608405194680616e-27  3.6175230164285997e-27  3.6509358342049696e-27  3.6593139567962333e-27  3.6756569683848210e-27  3.7395857742087821e-27  3.6604670144827977e-27  3.6808533887493188e-27  3.5258852267197861e-27  3.5924688214934229e-27  3.6576963203230890e-27  3.6179558197036514e-27  3.6598206879657725e-27  3.6040149566115977e-27  3.6145745553346817e-27  3.6103172699103923e-27  3.6060931201559362e-27  3.6423960693878038e-27  3.6541620933123844e-27  3.5708962426429280e-27  3.5967133034957120e-27  3.5810041208014428e-27  3.6138809612434889e-27  3.6269065734457295e-27  3.5767376816038958e-27  3.6540739658288798e-27  3.5774872186652965e-27  3.5679273219990581e-27  3.6212568256254719e-27  3.6529587179943733e-27  3.5975124673449656e-27  3.6217940073766391e-27  3.5880114513559949e-27  3.6053555055916073e-27  3.6091227988477706e-27  3.6372494195785821e-27  4.4499176259802094e-27  3.6153906059383086e-27  3.3261119545800513e-27  3.3244749992112498e-27  3.6585094352557080e-27  3.6490704042841447e-27  3.6289070216104861e-27  3.6249558249553480e-27  3.6135580278899293e-27  3.6037762489725924e-27  3.6341263595327753e-27  3.6133572516341005e-27  3.6017126770831598e-27  3.6293103232421787e-27  3.6105838023621193e-27  3.6971862299847723e-27  3.5944458514448722e-27  3.5978087536257811e-27  3.6973520956464255e-27  3.6151146321758352e-27  3.5206868268820843e-27  3.5531411694647567e-27  3.6542825205488347e-27  3.6488379360534071e-27  3.6047739957512697e-27  3.4923818881912345e-27  3.0343652569966963e-27  4.1803105156548001e-27  4.4619278542081472e-27  4.9838927971821347e-27  5.2618772942050130e-29  4.0168254561510071e-27  3.1253284899672212e-27  4.0834651197344687e-27  -1.0352536832719819e-27  3.0509708236658241e-27  4.4834676904404963e-27  3.4939391424399200e-27  2.8470986215700823e-27  3.3207611446334158e-27  4.9332297527471470e-27  3.7029813932639576e-27  3.5331312586276716e-27  3.6076847756544075e-27  3.5458523084014036e-27  3.6629682365601125e-27  3.4249244281546936e-27  3.4560152737312041e-27  3.6291369308541145e-27  3.3669808241271860e-27  3.4414317156