<?xml version="1.0"?>
<VTKFile type="UnstructuredGrid"  version="0.1"  >
<UnstructuredGrid>
<Piece  NumberOfPoints="6089" NumberOfCells="27967">
<Points>
<DataArray  type="Float64"  NumberOfComponents="3"  format="ascii">-34.06399 29.805018 19.130992  -31.582837 28.433346 18.9838175  -31.5828685 29.4990835 17.918048  -32.6489645 28.432245 17.918791  -32.9978625 29.806119 20.1960185  -31.931735 29.80722 21.261045  -31.233939 27.059472 16.70659  -29.796208 27.674953 25.528839  -27.4243425 26.3219875 25.25367  -28.4536935 26.3278715 24.2184355  -27.4250115 27.349247 24.225742  -25.053815 27.023541 22.922645  -26.081828 24.974906 23.9432665  -26.082497 26.0021655 22.9153385  -27.111179 24.98079 22.908032  -25.052477 24.969022 24.978501  -25.053146 25.9962815 23.950573  -28.7294025 27.675445 26.5951525  -27.662597 27.675937 27.661466  -26.357537 26.3224795 26.3199835  -26.358206 27.349739 25.2920555  -29.79475 25.540941 27.664308  -27.4236135 25.2549815 26.3214045  -28.7286735 26.608439 27.662887  -29.795479 26.607947 26.5965735  -28.452095 25.30123 25.246675  -28.451366 24.234224 26.3144095  -27.107982 22.927507 24.964511  -26.0802295 23.9482645 24.971506  -29.482619 24.238467 25.278913  -29.483348 25.305473 24.2111785  -29.170488 22.935993 22.893518  -28.139235 22.93175 23.9290145  -28.1408335 23.9583915 22.900775  -27.1095805 23.9541485 23.9362715  -34.064123 27.672667 21.263211  -32.650213 26.335689 20.0140985  -32.649031 27.3660695 18.9849005  -33.68722 26.3368175 18.9759635  -33.310317 25.000968 16.688716  -32.27331 24.9998395 17.726851  -32.272128 26.03022 16.697653  -31.235121 26.0290915 17.735788  -31.236303 24.998711 18.764986  -31.928644 25.53981 25.531547  -30.549566 24.2379015 24.2125325  -30.54935 25.265695 23.1849555  -31.5832935 24.239706 23.1770005  -31.237943 22.939602 20.822454  -30.2042155 22.9377975 21.857986  -30.2039995 23.965591 20.830409  -29.170056 24.99158 20.838364  -29.170272 23.9637865 21.865941  -31.584019 27.4029655 20.0130155  -31.9309905 28.7404305 22.328579  -32.997929 28.7399435 21.262128  -31.5832745 26.336176 21.0805495  -32.9971845 27.673154 22.329662  -31.930246 27.673641 23.396113  -29.797496 29.80866 23.393844  -28.453769 28.423192 22.123039  -27.4235475 29.4495365 22.1269165  -28.452023 29.454018 21.093959  -27.110042 27.037724 20.852234  -31.5806865 23.213411 24.2059035  -31.235336 21.913307 21.851357  -31.232729 20.887012 22.88026  -30.2016085 21.9115025 22.886889  -34.0640565 28.7388425 20.1971015  -29.483132 26.3332665 23.1836015  -28.1406175 24.986185 21.873198  -34.062183 25.539475 23.398343  -32.647456 23.2132435 23.1393015  -32.650063 24.2395385 22.1103985  -32.9954135 25.5396425 24.464945  -30.861697 25.5403755 26.5979275  -30.862426 26.6073815 25.530193  -30.551466 28.428945 20.0195885  -30.550152 29.461144 18.988704  -30.202568 27.055071 17.742361  -30.201254 28.08727 16.7114765  -29.168569 29.115068 16.716363  -29.169883 28.082869 17.7472475  -29.171197 27.05067 18.778132  -33.68715349999999 27.402993 17.909854  -33.68456399999999 23.2106185 22.104818  -33.306945 20.881762 20.811293  -32.269837 20.884387 21.8457765  -32.272444 21.910682 20.8168735  -30.550151 26.3326105 22.1172385  -31.5840945 25.3066215 22.1092835  -30.2031795 24.9951455 19.801675  -31.237123 23.9691565 19.79372  -30.20375 26.0246905 18.771559  -34.752922 27.368134 16.8789445  -33.687004 28.4349065 16.8780895  -35.129908 28.7382455 19.131847  -36.195826 27.671473 19.132702  -34.7530715 26.3362205 17.910709  -33.310018 27.064795 14.625187  -33.3101675 26.0328815 15.6569515  -27.663813 29.809872 25.526315  -26.358814 28.4167065 24.22448  -27.663205 28.7429045 26.5938905  -28.7300105 28.7424125 25.527577  -31.929445 26.6067255 24.46383  -28.453125 27.3563385 23.1905365  -27.3869275 28.423798 23.1892745  -29.796852 28.7418065 24.4613415  -33.685088 25.307804 20.0071085  -33.30818499999999 23.9719545 17.719861  -33.306053 22.942941 18.751006  -32.271178 23.970826 18.757996  -26.355161 25.294563 27.350276  -27.6621255 26.608697 28.729177  -32.9962145 26.606558 23.397228  -26.0819285 27.0306325 21.8874395  -32.65156899999999 29.4658555 16.8825755  -33.6872855 29.500735 15.8119795  -30.863227 27.674297 24.462476  -29.5191425 29.453298 20.0275595  -32.2719785 27.0621335 15.6658885  -31.931798 31.938695 19.129506  -30.5501835 30.5268815 17.9229345  -31.9317665 30.8729575 20.1952755  -30.5507215 27.3621555 21.0871225  -29.48339 30.527815 18.988795  -29.4843465 28.429665 21.085988  -28.1406195 27.044197 19.815183  -28.1388735 28.075023 18.786103  -27.10655 29.099376 18.794074  -27.108296 28.06855 19.823154  -30.8646155 29.80794 22.3274445  -30.863871 28.7411505 23.3949785  -36.196109 25.538661 21.265229  -34.751081 24.240801 20.0081175  -34.753213 25.2698145 18.9769725  -35.130116 26.605664 21.26422  -35.1299745 27.67207 20.1979565  -36.19596749999999 26.605067 20.1989655  -32.649243 25.269093 21.0816645  -34.063153 26.606071 22.330777  -33.684118 24.241208 21.0746745  -32.271998 22.9412715 19.78673  -29.1706265 26.021125 19.808248  -34.0614445 24.4725785 24.4659775  -33.6838255 22.143722 23.1724525  -30.5482485 23.208956 25.242796  -31.9275615 24.473241 26.5991985  -27.1106105 26.009257 21.880133  -29.520144 27.3556825 22.1241735  -28.140049 26.014652 20.845299  -35.129146 25.539068 22.331786  -26.0778535 22.920348 26.0017985  -33.306499 21.9123515 19.7811495  -38.325232 23.40636 21.268407  -36.8559805 22.1395675 20.004451  -36.853436 21.109478 21.037085  -37.896169 21.1018555 20.001975  -37.467106 18.797351 18.735543  -36.4269175 19.835063 18.738019  -36.424373 18.8049735 19.770653  -35.38164 18.812596 20.805763  -35.3841845 19.8426855 19.773129  -35.386729 20.872775 18.740495  -38.326797 25.538216 19.134988  -36.856389 25.269562 16.8740495  -36.856459 24.23774 17.9058015  -37.8993275 24.234206 16.8664665  -37.471858 22.930196 14.597945  -36.4289195 23.965552 14.605528  -36.4289895 22.93373 15.63728  -35.386121 22.937264 16.676615  -35.386051 23.969086 15.644863  -35.385981 25.000908 14.613111  -35.791115 24.2379625 18.970922  -34.346087 22.9401025 17.7138105  -34.348219 23.969116 16.6826655  -35.7909035 26.3361905 16.8729065  -34.348149 25.000938 15.6509135  -34.3479995 26.0328515 14.619149  -37.2613115 26.6048445 19.133845  -38.3269935 26.604275 18.068732  -38.32719 27.670334 17.002476  -36.8565855 26.335621 15.8077935  -37.261508 27.6709035 18.067589  -35.7909735 25.3043685 17.9046585  -36.193781 23.406132 23.400088  -34.750363 22.143947 22.1056905  -34.7497705 21.1117385 23.1384915  -35.7877105 21.109364 22.1029255  -34.34429249999999 19.847179 20.808528  -37.2595065 23.406246 22.3342475  -38.3247715 22.340286 22.334942  -37.8969935 23.20208 17.900927  -37.46719 20.865944 16.666866  -36.4266555 21.901604 16.6717405  -37.469524 21.89807 15.6324055  -34.749917 23.1745365 21.075547  -35.127982 24.4728035 23.3992155  -35.790255 22.1394535 21.0702915  -34.346837 20.8772685 19.775894  -36.8556765 23.171812 18.972511  -38.3260145 24.472288 20.2016975  -37.896211 22.136152 18.9676365  -37.467148 19.8316475 17.7012045  -36.4269595 20.8693595 17.7036805  -35.791419 23.205718 20.002862  -37.2606705 24.4725105 21.266818  -35.386425 21.9050195 17.708555  -37.261453 25.5384385 20.2001085  -36.194945 24.4723965 22.3326585  -34.346391 21.907858 18.7457505  -40.454711 21.274873 21.270416  -37.8957085 20.0357815 21.06851  -38.9609085 20.036112 20.0029795  -39.3899715 22.3406165 21.2694115  -53.209403 17.023743 12.766854  -51.87598375 16.41443025 12.709586  -52.4070255 15.882791 12.7101835  -52.40705225000001 16.4149055 12.17804225  -51.6047015 15.806068 11.5892305  -51.073633 15.80559275 12.12077425  -51.60467475 15.2739535 12.12137175  -51.604648 14.741839 12.653513  -51.07360625 15.27347825 12.6529155  -50.5425645 15.8051175 12.652318  -52.67833450000001 17.02326775 13.29839775  -52.147266 17.0227925 13.8299415  -51.34491525 16.413955 13.24112975  -51.875957 15.88231575 13.24172725  -53.20937625000001 16.4916285 13.29899525  -53.2093495 15.959514 13.8311365  -52.40699875 15.3506765 13.24232475  -52.67830775 16.49115325 13.830539  -51.085129 17.021842 14.893029  -50.81384675 16.41347975 13.7726735  -51.3448885 15.8818405 13.773271  -51.6161975 17.02231725 14.36148525  -52.14723925 16.490678 14.36208275  -50 14.588393 10.411607  -50.27128225 15.19675525 11.5319625  -50.802324 14.665116 11.53256  -50.80235075 15.1972305 11.00041875  -50.81384675 15.89206275 14.2940905  -51.07360625 14.75206125 13.1743325  -50.5425645 15.2837005 13.173735  -50.5425645 14.7622835 13.695152  -50.27128225 14.15392125 12.5747965  -50.802324 14.143699 12.053977  -50.802324 13.622282 12.575394  -50 13.545559 11.454441  -50 14.066976 10.933024  -50.27128225 14.67533825 12.0533795  -55.333333 14.897436 12.769231  -55.333333 14.60271875 12.03481025  -53.99999975 14.004041 11.96682125  -53.99999975 14.82017525 12.179825  -52.66666650000001 14.7429145 11.590419  -53.99999975 13.70932375 11.2324005  -53.99999975 14.525458 11.44540425  -52.66666650000001 13.92678025 11.37741525  -52.66666650000001 13.110646 11.1644115  -55.333333 14.3080015 11.3003895  -53.99999975 14.29875825 12.701242  -52.66666650000001 14.2214975 12.111836  -51.33333325 13.8495195 10.78800925  -51.33333325 14.3709365 10.26659225  -51.33333325 14.66565375 11.001013  -52.66666650000001 14.44819725 10.85599825  -52.66666650000001 14.15348 10.1215775  -52.66666650000001 13.632063 10.6429945  -51.33333325 14.14423675 11.52243  -55.333333 13.718567 9.831548  -53.99999975 13.4146065 10.49797975  -53.99999975 13.9360235 9.976562749999999  -53.99999975 14.23074075 10.7109835  -55.333333 14.01328425 10.56596875  -55.333333 12.245306 7.074777  -54.66653275 12.30001525 8.2201425  -55.333333 12.17940525 8.36134625  -55.333333 12.61362125 7.763969749999999  -55.333333 12.9819365 8.453162499999999  -54.66653275 12.6683305 8.90933525  -55.333333 12.5477205 9.050539000000001  -55.333333 12.1135045 9.6479155  -54.66653275 12.2341145 9.506711750000001  -53.9997325 12.3547245 9.365508  -55.333333
[...]
<PointData  Scalars="c_HbCO2"> 
<DataArray  type="Float64"  Name="c_HbCO2"  format="ascii">3.6195572771641865e-27  3.6225683656805430e-27  3.6245335797237950e-27  3.6272409655602895e-27  3.6166507676660483e-27  3.6189812471888058e-27  3.6188650230484662e-27  3.6180961211194852e-27  3.6220937871301081e-27  3.6204258967018294e-27  3.6172521752206316e-27  3.6185341164332678e-27  3.6177007227798944e-27  3.6129802765221595e-27  3.6184240864183748e-27  3.6181202313650598e-27  3.6128718569395695e-27  3.6158337615555691e-27  3.6173709144194267e-27  3.6187548817109794e-27  3.6190380574564299e-27  3.6176654815165629e-27  3.6168939722447792e-27  3.6188435644438639e-27  3.6172226683373601e-27  3.6166947588618949e-27  3.6181817012228485e-27  3.6176286815117190e-27  3.6205711603714057e-27  3.6220398887673855e-27  3.6249769094328995e-27  3.6199458343537869e-27  3.6163456030932404e-27  3.6165530474850930e-27  3.6195158845762489e-27  3.6221267355941930e-27  3.6286824221093848e-27  3.6298245626985737e-27  3.6352538605601620e-27  3.6234254972856237e-27  3.6239990787692320e-27  3.6152417642339138e-27  3.6202224786257923e-27  3.6205310152991733e-27  3.6190623860229649e-27  3.6224057827414366e-27  3.6237915631335044e-27  3.6298035191810066e-27  3.6216862911902394e-27  3.6173102059408529e-27  3.6163513100039304e-27  3.6181829803373980e-27  3.6186859926476364e-27  3.6252001064029082e-27  3.6156829935921704e-27  3.6248385792216679e-27  3.6259751813191866e-27  3.6186168946218730e-27  3.6187494364695907e-27  3.6182068158908475e-27  3.6192649531592421e-27  3.6167627325425923e-27  3.6194580163088446e-27  3.6193587057580154e-27  3.6258653553620478e-27  3.6226624515225273e-27  3.6213061898148849e-27  3.6185652611366395e-27  3.6160306511085586e-27  3.6193084579957846e-27  3.6202746996518037e-27  3.6212883113369746e-27  3.6304718743141668e-27  3.6308395824725025e-27  3.6199846741898631e-27  3.6219069459177970e-27  3.6185692809344750e-27  3.6228939973091628e-27  3.6223188854800791e-27  3.6242414213217808e-27  3.6149102300885028e-27  3.6198424339007499e-27  3.6143724291630181e-27  3.6182446553176552e-27  3.6337172161182203e-27  3.6412023141629148e-27  3.6274340641498888e-27  3.6175146161563428e-27  3.6175552877718580e-27  3.6232853920522916e-27  3.6256764104353376e-27  3.6213728729035531e-27  3.6206752571336571e-27  3.6137116705487399e-27  3.6414503436837642e-27  3.6330101646450009e-27  3.6255320161787415e-27  3.6237379474702144e-27  3.6419664027265097e-27  3.6223580513241899e-27  3.6223832121361041e-27  3.6182432926604947e-27  3.6183420869063194e-27  3.6178499214898358e-27  3.6200453799695122e-27  3.6156155633170112e-27  3.6200379365510831e-27  3.6193910067160651e-27  3.6170662297115962e-27  3.6357573690993706e-27  3.6248907820226052e-27  3.6241061538997745e-27  3.6159331830007962e-27  3.6174061716075427e-27  3.6183236514082742e-27  3.6251913434978166e-27  3.6239591502294602e-27  3.6278790391626340e-27  3.6302539427402763e-27  3.6186616409903989e-27  3.6193782574903568e-27  3.6243057294433486e-27  3.6178710601945273e-27  3.6209474683860624e-27  3.6195482762457298e-27  3.6238324076265774e-27  3.6201084264768476e-27  3.6193622676370660e-27  3.6212972624649007e-27  3.6138719625528099e-27  3.6192484547771998e-27  3.6142877984724894e-27  3.6151329663297734e-27  3.6235875780297100e-27  3.6256194630781724e-27  3.6461312686406905e-27  3.6452279026283296e-27  3.6301100025042535e-27  3.6169500216495089e-27  3.6133398111012196e-27  3.6312592891328518e-27  3.6147261056948416e-27  3.6370832356964275e-27  3.6214761407302246e-27  3.6195713975557711e-27  3.6160685680877157e-27  3.6359783524979023e-27  3.6238179406723992e-27  3.6138326743459698e-27  3.6152173944426993e-27  3.6214399666454251e-27  3.6141579340012849e-27  3.6226489065939940e-27  3.6168883557152512e-27  3.6263028063853883e-27  3.6355399051499338e-27  3.6798050677246382e-27  3.6805265281954320e-27  3.7179237383007312e-27  3.6521304889076021e-27  3.6313083226223684e-27  3.6314163013256557e-27  3.6331904307691930e-27  3.6325087120439453e-27  3.6342820344247489e-27  3.6332865329814286e-27  3.6730607440915992e-27  3.6737254413178519e-27  3.7002254518538031e-27  3.6470590561023136e-27  3.6236511505530424e-27  3.6380321673524176e-27  3.6324417552822951e-27  3.6283942772312175e-27  3.6302296532178858e-27  3.6580570513676040e-27  3.6297925657385482e-27  3.6169083816991483e-27  3.6539103559784782e-27  3.6286083200003703e-27  3.6156986787305088e-27  3.6357996909739095e-27  3.6290983996825147e-27  3.6367865557648318e-27  3.6647127855567142e-27  3.6186366380002938e-27  3.6565481879430346e-27  3.6246173906815287e-27  3.6465756473344714e-27  3.6466763802282850e-27  3.6614193818584906e-27  3.6243118813466323e-27  3.6274790479919979e-27  3.6268619068819470e-27  3.7039814597333438e-27  3.6480932267315390e-27  3.6274722387744408e-27  3.6462218659896468e-27  3.6471624568780003e-27  3.6248318378100486e-27  3.6652759117274280e-27  3.6266765551569702e-27  3.6804958183573885e-27  3.6240048752724308e-27  3.7067660648270267e-27  3.6480061943401256e-27  3.6344310356629638e-27  3.6601716303503492e-27  3.6340098863911774e-27  3.6298428593860596e-27  3.6276230883649363e-27  3.6209742534064485e-27  3.6162850402700232e-27  3.6616967369954333e-27  3.7050931513264618e-27  3.7478153031786203e-27  3.6415866938094477e-27  8.1175664496419257e-26  -7.0535013873146607e-26  -7.8273878037882695e-26  2.2729639414199054e-26  3.5171876504556785e-25  9.5660925009408167e-26  -1.4385941239861417e-26  3.9511729180675583e-25  8.8901788269104430e-26  1.3029229687791034e-25  2.5057941266650906e-26  3.7950508976701236e-26  2.9154271547013805e-27  -3.9018434764636430e-26  6.9434280034003162e-27  7.9767627896208558e-26  -2.4201461313386739e-26  2.7384771403211145e-26  2.2845807941236731e-26  1.4691937494504255e-27  -7.0774117315408395e-26  1.5591732501783867e-26  5.8467254171505273e-27  2.7680804417163730e-24  -1.4344702208872481e-25  -7.2571442852072560e-25  -1.1261174281708375e-25  -2.7540626840285188e-26  1.6973477608221356e-25  6.1248611204258021e-26  2.8705071937331456e-25  -3.3398583533672354e-25  -8.3215884093509669e-25  -1.4875834479021670e-24  5.7976406656534362e-24  3.0494168712201254e-24  -7.3360248286978648e-25  2.5841532894967906e-25  -2.1944584536544292e-26  -7.0070728951446078e-25  -3.9646859796598650e-26  4.6129937513162875e-25  -3.9682787875199630e-25  -1.6124964954333389e-26  -1.8471356146174300e-24  8.6184580494918902e-24  1.1310499877240891e-24  -1.6039866497544589e-25  3.2048195467479485e-25  3.4886863645230664e-25  -2.6805555362999322e-24  -1.1348792712558178e-25  -5.7127122522839839e-25  3.7280375480599201e-24  4.4886880223981245e-24  -1.2080497288953760e-24  6.4330536226354798e-24  -6.3919281231884538e-24  -2.4757264206511246e-24  -4.2257715977712371e-25  5.8287271890740751e-25  6.3999999999999997e-22  -2.2788302154793274e-22  -1.4500735702044219e-22  -4.7484069948238933e-23  3.8224231851847235e-23  5.6242679984794739e-24  4.7625081900080130e-23  9.1991372789993515e-23  6.2314614053865416e-23  6.8395260835679183e-23  6.3999999999999997e-22  -1.2583051578808735e-22  2.1394956840092699e-23  6.3999999999999997e-22  6.3999999999999997e-22  -1.3712541520682789e-24  6.3999999999999997e-22  6.3999999999999997e-22  6.3999999999999997e-22  6.3999999999999997e-22  6.3999999999999997e-22  -3.5006828372106531e-22  -7.7996942726528472e-23  6.3999999999999997e-22  6.3999999999999997e-22  6.3999999999999997e-22  -8.2405387636588753e-23  -2.0776878902742430e-23  -1.0217608705477369e-23  -1.2237530537963523e-24  6.3999999999999997e-22  6.3999999999999997e-22  6.3999999999999997e-22  -2.5106706408398502e-22  -8.2832724541223867e-23  -1.7911537693357990e-22  -2.2998664134872712e-22  2.5617888178946591e-23  1.8361813502199984e-23  5.8120124591763294e-23  2.3043814366063421e-23  4.0168678559913066e-23  3.5061892678005526e-23  7.4364942428255551e-24  -8.2028819041435693e-25  -1.1252458015751959e-24  -5.5831461007139252e-24  -3.7062656202788787e-24  -5.0350185187756784e-24  4.4713184133074689e-24  2.2119828383247516e-25  1.7666682760003595e-24  5.0119573337205158e-24  -1.0750900497624305e-24  3.3441696453059010e-24  -9.2454669057125338e-24  -6.6710653319627231e-24  -5.5224937599429006e-27  2.1020114078239062e-24  2.2427475250064789e-24  -7.8201900637133054e-25  2.7890971163406703e-24  1.9714223115173598e-24  -8.6555977589399082e-25  -4.1357535173888948e-24  -1.7725340660441984e-23  2.6044029138772220e-25  -1.3822771616258374e-24  1.0148652630829379e-25  -3.3988120459250009e-25  -1.4855457272241224e-25  1.2142485725774300e-25  1.0037624587701089e-24  3.8208715055476191e-26  3.7104002774853384e-25  1.6597929988777016e-24  -3.0507574168448025e-25  4.4446298090045067e-25  -9.6446374039536604e-25  -2.5148242895450921e-25  -7.5550239938067713e-25  -6.3348013294636819e-25  1.1920436681176595e-24  5.0738219845085435e-26  -1.3647060205819302e-24  -3.3754365788942249e-25  -1.4139164838481626e-24  -8.0327666787683062e-25  -9.5223787786632767e-24  -1.7332380711548191e-23  -4.5569315573237924e-24  4.9514378320426567e-23  -2.5269139123020988e-23  6.1227222986222834e-23  -1.9812107988981709e-23  -5.6043658052380900e-24  1.3481767768693343e-24  -6.3616534244474872e-24  -1.5301926504910337e-22  -2.6349851215789528e-22  3.6610449526477455e-27  3.7433999976123496e-27  3.7937865022109653e-27  3.8029792500635486e-27  3.6912346310578618e-27  3.6498351713804279e-27  3.6926190244531341e-27  3.6866132820436225e-27  3.6603144300578094e-27  -1.9901169350549581e-23  -7.2751802892194967e-24  -4.9689891187789468e-24  -3.1621386262320144e-24  6.4703360156102027e-24  4.1937309252699088e-25  -1.6686773483439297e-25  -5.3462958697372243e-25  -8.7131928834737035e-26  4.1539946953713001e-25  8.8591353814826486e-27  -5.7632764469513217e-25  -2.9016293811547018e-25  5.5466852900703788e-25  -2.6076124732501430e-24  -7.8454654137300402e-25  -1.3579292051234441e-24  2.0906211659191706e-24  -1.7694843945813350e-24  2.4305145351823869e-25  -7.0139836249156185e-24  -6.1174795424902059e-24  -6.4348809782348303e-27  -3.4357671788157733e-25  -3.2654174515405052e-24  7.9777672195441165e-26  9.6248170546891733e-24  4.8837821717499876e-24  -1.0740852906115382e-23  -3.4779059767631622e-24  -1.0518972287453114e-23  9.0300882112649923e-25  1.9256730536685709e-25  2.0320701200400781e-26  -7.7923328335633629e-25  3.2568327220993464e-25  4.8579960846738874e-28  2.8008126749553256e-27  6.6853017098401980e-27  3.0580252194408644e-26  4.9555853525591519e-27  8.6704951389931860e-28  7.7892495036333347e-27  8.0887575826037853e-27  1.0338230431210101e-26  5.2382269399388186e-27  8.1172000724951958e-27  5.6321486496866476e-27  5.4611189489997912e-27  1.9827711441721514e-27  3.8369862896423380e-27  4.3594720725342582e-27  4.9733839112268761e-27  2.9916301007703943e-27  5.9515708336271861e-27  5.2813712738125851e-27  4.2558180912898172e-27  4.1489811444442609e-27  4.6730821110830656e-27  3.7193818093218182e-27  4.1087876646727331e-27  4.7173764157819567e-27  4.5276792788148616e-27  4.1161840589253407e-27  4.5640398878975172e-27  3.6084977553284834e-27  5.6204451410234188e-26  -1.0746293941231087e-27  1.2138231193011328e-27  3.2818259393967459e-26  6.3999999999999997e-22  -2.7400056757806524e-22  6.3999999999999997e-22  6.3999999999999997e-22  6.3999999999999997e-22  -2.3818899128281219e-22  6.3999999999999997e-22  6.3999999999999997e-22  -2.7205394358023568e-22  6.3174979989834169e-23  -5.6494259926269970e-23  1.5578925956307251e-23  6.0049271836208286e-23  4.0219445779026773e-23  6.3999999999999997e-22  -1.9885113998193721e-22  6.3999999999999997e-22  6.3999999999999997e-22  -2.1284988509917659e-22  5.7648967656920669e-27  4.7655620632770377e-27  4.4456965848141744e-27  5.9185813803193197e-27  9.8075242847661111e-27  6.2694251352510249e-27  5.8871680370718936e-27  7.1770068333206630e-27  6.3288459003853817e-27  5.9914936262114306e-27  4.0159132515932338e-27  4.0924642526352002e-27  5.0630267697458536e-27  5.1255772378941387e-27  3.8911424427129147e-27  4.8534522104334299e-27  4.8164361450662867e-27  4.8220530234682097e-27  6.1263250249145156e-27  5.7427968679804309e-27  5.6867179351000104e-27  3.9125002486235250e-27  1.2502404285429478e-26  8.4357795692150870e-28  4.1995820619842749e-27  2.6108771576166046e-27  4.9667141848409029e-27  5.0682817356394322e-27  6.9064001278802859e-27  8.2351267596387195e-27  5.2775750423282513e-27  2.6532684421961546e-27  4.8924897286574951e-27  4.3979355212015348e-27  4.7921043742805129e-27  -1.0923528229732684e-25  3.5492080193643932e-25  1.7585796449833368e-25  2.6847000586333341e-26  -4.9789604694501090e-25  -9.5924678047106195e-25  -9.6721054174588968e-25  -9.5902635706837047e-25  2.1616726412340152e-25  -6.5022031753625047e-25  3.6529876433480668e-27  3.6598413189951506e-27  3.8127287403168852e-27  3.6866389267535095e-27  4.4908527545724499e-27  3.8217825203408320e-27  4.8900522650019463e-27  3.8144180959159597e-27  4.0501316083619061e-27  3.9435823861690491e-27  5.4026725928244271e-27  4.6508695041409486e-27  4.0813208801697539e-27  4.4601309615039374e-27  3.7863457260072045e-27  4.4790299747167089e-27  4.7239797305478439e-27  4.7509045565816585e-27  4.9075369279057511e-27  4.1300604878389958e-27  3.8177366545664491e-27  3.9116711386949279e-27  3.7786193934210618e-27  4.6356876927366164e-27  3.7857591331852707e-27  8.0300187449627570e-27  -4.5474799223289624e-26  -1.3056082796029840e-25  -4.7516721160074841e-26  3.1328416554118169e-26  1.7107717961399808e-25  -1.3245504664987987e-26  1.2025632664572655e-26  6.1141508571987566e-26  -9.5436602272893289e-26  -3.8650703593880816e-26  -4.8762163139105791e-26  -3.9386175742015735e-26  -1.6082681650504221e-26  -1.3866882791425787e-25  5.9840744562525028e-27  6.0093397116854173e-27  9.4021962943768646e-28  4.3058181533166943e-27  9.0697299628054834e-27  8.3813698716683028e-27  7.8896021622925095e-27  1.4426352459960579e-26  1.5708030801155137e-26  1.6580214972339341e-26  6.2647850326908366e-27  5.2875225392831907e-27  6.3347030348840132e-27  6.4913482240292690e-27  3.3530126859002695e-27  5.4589666090686132e-27  4.2838725500072232e-27  4.0522223376787499e-27  4.5925456359727497e-27  5.1693318410283696e-27  4.1101626531232121e-27  4.4508051478530785e-27  4.0170680211059571e-27  4.1624395998647392e-27  4.0652721701271310e-27  4.8141207877635765e-27  5.3359610503744699e-27  5.3650886634371874e-27  3.9214452758277800e-27  3.9614112905144292e-27  -1.0183011317996210e-26  2.1406498802484066e-27  -7.4874515535069772e-27  3.8251091283446258e-27  4.1214919912432405e-27  3.7498638312260150e-27  3.7523775211670961e-27  4.1991171722049944e-27  4.3330469519343093e-27  4.1160912725504721e-27  3.7784076325868408e-27  3.7655751700220849e-27  3.7673024012726378e-27  3.7337984921706220e-27  3.7278334479504633e-27  3.7285845490246261e-27  4.0620685892087268e-27  4.0602870001057226e-27  3.9849394067871390e-27  4.1301370355603001e-27  4.2282401322457955e-27  3.9713464228409298e-27  4.3328398857890499e-27  3.7722436986934108e-27  3.8018683244349051e-27  4.5377143763008564e-27  4.7340604647713419e-27  4.3719701579057600e-27  3.8435452271437157e-27  3.8169941194477614e-27  3.8361771949526992e-27  3.9385715073843562e-27  4.4822047889381691e-27  3.7603471863240139e-27  3.9016884831855500e-27  3.8547355015348984e-27  3.7885205572872704e-27  4.4688227737784103e-27  3.7989322148848285e-27  3.7413633410135802e-27  3.7692695508798311e-27  4.2865776310902008e-27  6.3047955994868696e-27  1.8452156921040223e-27  -2.1961490746755689e-27  2.9707291228131555e-27  2.2398542712302026e-26  -1.1409460220474249e-26  1.1007062941900747e-26  -3.0637391200322836e-27  1.0233101674592801e-25  2.6008861164940388e-26  3.1785193962283314e-27  -5.5439251736288046e-27  -1.0518023733860970e-25  2.4106518086433035e-25  3.6841955557121052e-26  -3.3644930911548152e-26  -1.7181944509156434e-26  -3.1190789456308003e-26  -6.1257689509159691e-26  -4.9876233190628872e-26  3.8188550831876586e-27  4.2294463621235930e-27  4.3093500362740443e-27  4.1905080955603107e-27  4.2621807788957408e-27  4.2682123296187909e-27  4.3937908470136845e-27  4.5373918805803883e-27  4.4210542133231022e-27  4.2952262772902693e-27  3.7876472352313124e-27  4.1407469273132665e-27  3.7751966388719374e-27  4.1458312594458935e-27  3.7523525685700987e-27  3.7385421209686428e-27  3.7545238176644182e-27  4.0537152039835879e-27  3.7918171490514888e-27  3.7725464961589189e-27  4.1156609338682347e-27  3.7293150734143414e-27  3.7328854928780884e-27  4.0372971944433910e-27  3.7253481839347383e-27  3.7402846959118622e-27  3.7446696933321089e-27  4.0801351110371257e-27  3.7417564232404554e-27  4.0620506481462517e-27  3.7214459515187802e-27  3.8225199152999527e-27  4.1776638739994372e-27  4.2523493833536440e-27  4.1670250572956496e-27  5.4657138198278272e-27  5.3261079556732744e-27  4.6722330409542709e-27  5.7960475924241880e-27  -1.0918316025602450e-27  -3.5074346757933481e-27  2.9108042028022664e-27  4.5362632272812821e-27  4.4270005942428387e-27  6.1201524177645749e-27  4.7852603687519561e-27  6.4915666536351245e-27  5.3387070590014133e-27  4.6673715339897388e-27  4.6350479943829561e-27  3.6008205824870140e-27  3.7250038711549536e-27  4.1023560338780824e-27  4.4096511196685434e-27  4.0912307570906217e-27  4.0110650933648193e-27  3.3436419580362298e-27  4.5695342500439370e-27  3.5519606579570947e-27  -2.5517966071453357e-25  1.7454963590439711e-25  1.1736405890406640e-24  1.5244857961121568e-24  7.6302565365449874e-24  -5.1175479075772109e-25  3.6408516523824364e-25  1.0917804239352296e-23  1.8439345082490284e-24  2.6742060011127906e-23  3.6841670154489084e-23  4.7243642430511526e-23  -1.1940071520972794e-23  6.1468984895672247e-23  7.5411891287918401e-23  -1.0394702639934792e-24  6.3999999999999997e-22  6.3999999999999997e-22  -3.0792138176824628e-22  -1.0228932107027578e-22  -1.2587570003047477e-22  3.6557571483875824e-23  6.3999999999999997e-22  1.8352483346885716e-23  -1.1204126553678499e-22  6.3999999999999997e-22  6.3999999999999997e-22  6.3999999999999997e-22  -4.1410681144463905e-22  6.3999999999999997e-22  6.3999999999999997e-22  6.3999999999999997e-22  -1.6720809877106811e-22  5.0773772770614519e-23  -3.2225834947382028e-22  6.3999999999999997e-22  6.3999999999999997e-22  6.3999999999999997e-22  6.3999999999999997e-22  -3.5949522998632652e-22  -3.3194663375081320e-22  6.3999999999999997e-22  -2.8280129999714930e-22  4.1492258743825958e-23  6.3999999999999997e-22  6.3999999999999997e-22  6.3999999999999997e-22  -3.6775738142193330e-22  -2.8260602473793631e-22  -3.1616142785930293e-22  -1.7550152766270102e-23  -5.4916183653379240e-24  6.3999999999999997e-22  -6.2246915871806331e-24  5.2995350488943073e-24  -1.4421535386821926e-23  6.3999999999999997e-22  -6.2629907175640261e-23  1.2526570137338671e-23  -2.8786081296297408e-22  -7.3627295524296351e-25  1.8271749056442962e-23  6.3999999999999997e-22  -6.6397202344174422e-23  1.4105617540128307e-23  -2.7449305250554437e-24  1.1244975640340942e-23  -1.6479322165656932e-24  -2.6116566395281201e-24  4.0711272900405360e-25  1.8548976140934348e-24  -1.7785079277552834e-24  -1.6080061319010426e-24  6.3999999999999997e-22  -6.2614590746118578e-23  -3.0807455179021143e-22  -2.8369901260558395e-22  2.9776682497982437e-23  4.0503175476194757e-25  -5.8976591463362697e-24  6.3999999999999997e-22  -6.1699711826028835e-24  1.6430423076176285e-24  -1.1143028883995720e-23  1.1197704309869132e-24  4.7240436628921107e-27  4.7190566519179361e-27  4.9667740713193939e-27  7.0020940005736954e-27  5.6905498421118517e-27  5.7111127882113328e-27  5.3965528428508824e-27  5.6378461237847033e-27  3.8626560715375959e-27  3.9541936495357815e-27  5.0225232992634142e-27  4.7958794158026803e-27  4.7557434379106418e-27  4.7093128335707215e-27  5.2292351455448786e-27  5.4819357478771350e-27  5.2132697188102031e-27  3.9109390499698733e-27  3.3787748513347017e-27  4.5180309258323361e-27  4.8017825874629651e-27  4.8095402842185261e-27  4.4029221570663373e-27  4.9331474157200959e-27  3.8166419092507817e-27  4.7589310