<?xml version="1.0"?>
<VTKFile type="UnstructuredGrid"  version="0.1"  >
<UnstructuredGrid>
<Piece  NumberOfPoints="6796" NumberOfCells="27753">
<Points>
<DataArray  type="Float64"  NumberOfComponents="3"  format="ascii">23.418466 -21.263788 -38.317746  23.1924235 -20.016851 -35.790725  22.1258105 -20.018638 -36.8555515  23.160908 -18.9807015 -36.85839  24.485079 -21.262001 -37.2529195  25.551692 -21.260214 -36.188093  24.227521 -18.9789145 -35.7935635  22.90335 -16.697615 -35.399034  21.8682525 -17.7355515 -35.3961955  20.833155 -18.773488 -35.393357  25.2651425 -18.9818075 -34.7530495  24.2318235 -20.01696 -34.751216  22.9076525 -17.7356605 -34.3566865  22.911955 -18.773706 -33.314339  23.418568 -23.392922 -36.18851  22.1327145 -23.1855045 -33.681781  21.1054825 -23.15339 -34.7411275  22.133849 -22.119522 -34.746629  23.4174335 -24.4589045 -35.123662  23.416299 -25.524887 -34.058814  21.104348 -24.2193725 -33.6762795  20.84913 -20.846122 -33.304748  19.8207635 -21.87999 -33.2992465  18.792397 -22.913858 -33.293745  21.286545 -23.394501 -38.318954  20.028322 -22.1176545 -36.8540235  21.05985 -21.0839945 -36.8561555  20.0206645 -21.079476 -37.8998595  18.754784 -18.764451 -37.480765  18.7624415 -19.8026295 -36.434929  19.7939695 -18.7689695 -36.437061  19.801627 -19.807148 -35.39122500000001  18.770099 -20.840808 -35.389093  21.086625 -20.0141195 -37.8992555  22.3525055 -22.3291445 -38.31835  25.54829 -25.526223 -31.925487  24.246604 -24.2178195 -30.5355765  23.2091695 -24.2194435 -31.5713875  24.2365 -23.187089 -31.576411  22.92471 -20.847955 -31.227335  21.9074835 -22.91104 -30.181477  22.934814 -21.8786855 -30.1865005  21.8973795 -21.8803095 -31.2223115  20.870049 -22.912664 -31.217288  22.944918 -22.909416 -29.145666  23.1652615 -21.083314 -34.7514245  22.1258615 -21.083205 -35.7909335  20.8411425 -19.809805 -34.3490525  21.872555 -18.773597 -34.353848  21.8805425 -19.809914 -33.3095435  23.1999515 -22.1194545 -33.680594  24.4846705 -23.3928545 -35.122475  25.550773 -23.392787 -34.05644  24.231364 -21.0832465 -33.6853895  24.2377415 -22.120371 -32.6418875  22.9183325 -19.8108305 -32.270837  21.88692 -20.8470385 -32.2660415  22.1406705 -25.286578 -31.5727525  23.222428 -25.2517885 -30.525783  20.8833075 -23.945009 -30.1716835  24.244087 -25.2858155 -29.470097  21.28656 -21.266502 -40.446939  20.020672 -20.0154765 -38.963852  21.2865525 -22.3305015 -39.3829465  22.352513 -21.265145 -39.3823425  25.3045395 -22.120046 -31.5754145  25.268701 -21.083593 -32.647706  25.298111 -20.0168735 -33.6850155  25.5512325 -22.3265005 -35.1222665  22.143174 -24.2187755 -32.638051  20.8595895 -21.879393 -32.261018  19.831223 -22.913261 -32.2555165  24.48513 -22.326568 -36.1883015  23.1705045 -23.186421 -32.6430745  25.2926865 -17.9142925 -35.7930205  21.0943335 -22.116865 -35.78880150000001  22.3525565 -23.3937115 -37.253732  23.418517 -22.328355 -37.253128  19.8096145 -20.843465 -34.3469205  25.312596 -24.2188795 -29.4685245  26.611765 -26.595279 -29.7929555  26.614282 -25.527283 -30.858435  24.479791 -26.5933575 -31.926852  23.4137955 -26.5926895 -32.9935155  24.4822945 -25.525555 -32.9921505  23.411292 -27.660492 -31.928217  25.5495315 -24.459505 -32.9909635  24.483536 -24.458837 -34.057627  18.781248 -21.877333 -34.341419  25.2741715 -23.1821345 -30.5436945  25.539498 -6.380854 -51.079648  25.26806 -4.231108 -49.5008325  24.2261115 -4.234064500000001 -50.539824  25.290143 -3.1703 -50.539557  22.912725 -2.087275 -50  24.223062 -5.275756 -49.501182  22.9096755 -3.1289665 -48.961358  22.906626 -4.170658 -47.922716  25.2875105 -5.274795 -48.4376945  24.2234215 -6.3385815 -48.4379965  25.5398575 -7.4436795 -50.0164625  25.540217 -8.506505000000001 -48.953277  25.54115 -10.631683 -46.827167  24.224013 -9.486280000000001 -45.289707  25.266356 -8.443809 -45.2898355  24.224064 -8.4427485 -46.333187  22.906978 -6.253814 -45.839207  22.906927 -7.2973455 -44.795727  22.906876 -8.340877000000001 -43.752247  21.056535 -18.9777295 -38.965736  20.016209 -18.9743535 -40.009438  18.745858 -16.682205 -39.571937  18.750321 -17.723328 -38.526351  19.786184 -16.685581 -38.528235  20.82651 -16.688957 -37.484533  19.790647 -17.726704 -37.48264899999999  25.542353 -12.756509 -44.701138  25.288856 -9.4847345 -44.2264095  25.2657685 -10.5511095 -43.183122  24.2246145 -10.548693 -44.2266925  25.5417515 -11.694096 -45.7641525  25.289099 -11.5921485 -42.118753  24.2246775 -12.6560145 -42.1193085  24.223805 -11.59375 -43.182445  25.5432255 -13.8187735 -43.6380015  25.544098 -14.881038 -42.574865  22.905257 -10.430991 -41.663752  24.2250145 -14.7640865 -40.0108985  25.2894405 -13.699593 -40.01096649999999  24.2236765 -13.7012585 -41.0750655  25.545436 -15.943866 -41.510698  25.546774 -17.006694 -40.446531  22.903255 -12.521479 -39.575266  22.122488 -18.9763725 -37.9011395  20.8298325 -17.7312225 -36.438945  23.417127 -19.135508 -40.447365  22.1218185 -17.9122325 -38.96594899999999  23.4177965 -20.199648 -39.3825555  22.3518435 -20.201005 -40.447152  25.549479 -19.132566 -38.317955  24.2264145 -17.9150905 -36.8584945  25.5505855 -20.19639 -37.253024  24.4839725 -20.198177 -38.3178505  23.1879945 -17.9107615 -37.901244  23.1589825 -16.8744855 -38.966532  24.483303 -19.134037 -39.38266  24.2251585 -16.8730145 -37.901827  22.900838 -14.613463 -37.485699  21.863674 -15.65121 -37.485116  24.2235975 -7.3801595 -47.396242  25.2667 -6.3375205 -47.395779  22.906802 -5.212236000000001 -46.8809615  25.288229 -7.3789155 -46.332855  24.223806 -15.8100785 -38.966115  25.264214 -14.7680925 -38.967693  22.9020465 -13.567471 -38.5304825  23.415182 -17.010101 -42.574717  22.1200755 -16.869475 -40.0104495  23.184899 -15.805068 -40.0100325  22.119103 -15.8067715 -41.0741255  23.4161545 -18.0728045 -41.511041  24.480978 -17.0083975 -41.510624  24.4819505 -18.071101 -40.446948  20.823024 -14.603442 -39.573534  25.264854 -12.659495 -41.07565200000001  25.264646 -16.874511 -36.860843  22.902094 -15.655539 -36.4423665  21.86493 -16.693286 -36.4417835  22.904256 -11.476235 -40.619509  23.1592185 -14.76579 -41.0749915  23.1834705 -13.697655 -42.118875  24.47964 -15.9455695 -42.574791  22.1190125 -14.7621865 -42.118801  20.822843 -12.514272 -41.662885  21.863049 -12.5178755 -40.6190755  21.8631395 -13.5624605 -39.5744  25.2899565 -15.8080315 -37.9020115  21.861931 -14.6084525 -38.5296165  21.0814925 -17.9088565 -40.009651  25.5481265 -18.06963 -39.382243  21.86405 -11.4726315 -41.6633185  20.824767 -15.6461995 -38.5290335  19.784441 -15.6428235 -39.5727355  22.9060665 -9.385934000000001 -42.7079995  20.8229335 -13.558857 -40.61820950000001  25.5406835 -9.569094 -47.890222  22.351323 -24.4596785 -36.1889985  21.284078 -25.526435 -36.189487  20.0382375 -24.2201465 -34.741616  22.3501885 -25.525661 -35.1241505  19.149006 -27.659263 -36.191731  17.940725 -26.3195015 -34.7397735  16.897913 -26.3186175 -35.7834695  16.909902 -27.353724 -34.736374  14.670798 -27.048185 -33.281017  15.689632 -24.978856 -34.331512  15.701621 -26.0139625 -33.2844165  14.658809 -26.0130785 -34.3281125  14.64682 -24.977972 -35.375208  16.732444 -24.97974 -33.287816  12.75472 -31.925384 -38.319896  12.691218 -29.4604185 -36.8483635  11.6167275 -29.489297 -37.893975  11.6256725 -30.526341 -36.847987  13.8202655 -30.8594615 -38.3202725  14.885811 -29.793539 -38.320649  12.682273 -28.4233745 -37.8943515  10.496625 -29.127298 -35.376078  10.48768 -28.090254 -36.422066  10.478735 -27.05321 -37.468054  17.014547 -29.792987 -36.192467  16.907538 -28.4206715 -33.6717905  15.8426725 -28.420586 -34.736742  15.839903 -29.487267 -33.67283  18.0794125 -29.7930725 -35.1275155  18.076643 -30.8597535 -34.0636035  19.144278 -29.793158 -34.062564  17.953718 -28.419612 -32.62667  16.9166825 -29.4565265 -32.626791  15.716978 -27.0471255 -32.2358965  16.763158 -27.046066 -31.190776  21.116936 -25.252333 -32.630731  21.1144325 -26.3201355 -31.5654325  18.817573 -24.979779 -31.202648  19.843811 -23.9462215 -31.209968  14.807363 -29.4566025 -34.736035  14.7941695 -28.422171 -35.7836605  12.573792 -27.051355 -35.374854  13.622295 -27.04977 -34.3279355  20.0270885 -23.1836215 -35.78929  21.2853115 -24.460468 -37.2542205  17.9287275 -25.284583 -35.78668949999999  19.008261 -25.2530875 -34.7386515  18.9962635 -24.218169 -35.7855675  20.216542 -26.592849 -36.19060899999999  16.708449 -22.909903 -35.381648  16.7204465 -23.9448215 -34.334732  17.019364 -27.66094 -38.319696  15.833092 -26.319456 -36.847452  14.7858325 -26.31981 -37.8943575  14.796578 -27.3561475 -36.847275  13.5995605 -24.978326 -36.4221135  13.610306 -26.0146635 -35.375031  12.5630465 -26.0150175 -36.4219365  12.552301 -24.97868 -37.469019  15.8306835 -27.3854795 -35.7838375  14.882228 -31.925416 -36.192356  13.72801 -29.4883855 -35.78360499999999  15.9483875 -30.8592015 -36.1924115  14.8840195 -30.8594775 -37.2565025  13.7298015 -28.422447 -36.8477515  15.950179 -29.793263 -37.256558  17.938361 -27.386449 -33.67519  19.146642 -28.7262105 -35.1271475  20.036116 -25.286585 -33.677299  22.348067 -26.5920995 -34.0598335  21.279835 -27.659312 -34.060853  20.048704 -26.3195455 -32.6317505  18.804985 -23.9468185 -32.2481965  18.0817765 -28.726125 -36.192099  19.0061395 -26.319526 -33.6743345  20.2144205 -27.6592875 -35.126292  20.2120565 -28.726235 -34.0617085  11.5352085 -28.0893265 -35.375466  13.818474 -31.9254 -37.25612599999999  19.0214965 -27.352689 -32.6258145  20.209023 -29.793724 -32.997253  21.2768015 -28.726801 -32.9963975  21.273768 -29.79429 -31.931942  20.0456705 -27.3870345 -31.567295  17.7903655 -26.0129225 -31.196712  22.3455635 -27.659902 -32.994535  15.9525875 -28.7272395 -38.3201725  17.0169555 -28.7269635 -37.2560815  13.719056 -27.3861095 -37.894834  11.515518 -26.015945 -37.4685365  11.5262635 -27.0522825 -36.421454  18.084185 -27.6601015 -37.2557135  17.7750085 -24.9797595 -32.245232  16.747801 -26.012903 -32.239296  17.7624205 -23.946799 -33.2907805  21.2819565 -26.5928735 -35.12517  15.6776345 -23.9439375 -35.378428  18.997497 -23.152202 -36.850301  20.2
[...]
<PointData  Scalars="c_HbCO2"> 
<DataArray  type="Float64"  Name="c_HbCO2"  format="ascii">3.6171320577519916e-27  3.6175002117558733e-27  3.6166258983487692e-27  3.6171151561404982e-27  3.6151069895169165e-27  3.6163198238348186e-27  3.6173161004945439e-27  3.6170834677776222e-27  3.6133373569381605e-27  3.6171921969446823e-27  3.6172556355903561e-27  3.6171198192350085e-27  3.6192820206631865e-27  3.6168811780944311e-27  3.6166114737157568e-27  3.6160522155552994e-27  3.6172483691026180e-27  3.6168929497711086e-27  3.6171829358379610e-27  3.6164091418770094e-27  3.6174332048436758e-27  3.6162091116808523e-27  3.6155632005206119e-27  3.6176802528844903e-27  3.6166650957268447e-27  3.6169522239588748e-27  3.6170051618737293e-27  3.6157961841108280e-27  3.6169443252046152e-27  3.6210695342434758e-27  3.6170725195836169e-27  3.6130144541400979e-27  3.6173173185808267e-27  3.6168375364940986e-27  3.6181324857316191e-27  3.6165619845402510e-27  3.6173456479358638e-27  3.6178395246413639e-27  3.6156189384004923e-27  3.6167819040011409e-27  3.6154816040286156e-27  3.6225745413226288e-27  3.6156805155478990e-27  3.6173708303669386e-27  3.6166550346872178e-27  3.6170131737652593e-27  3.6171605554897965e-27  3.6210710460507007e-27  3.6171733650757765e-27  3.6138600755774857e-27  3.6175528943786562e-27  3.6163715102684373e-27  3.6172195585527502e-27  3.6173856344510815e-27  3.6167156898444516e-27  3.6199033950429736e-27  3.6182525913022128e-27  3.6171532391623613e-27  3.6169744814498584e-27  3.6200642930266401e-27  3.6182465525049425e-27  3.6165533269600680e-27  3.6161252359518165e-27  3.6170947283905291e-27  3.6172624203418028e-27  3.6182975836745310e-27  3.6171115589242177e-27  3.6177719015092507e-27  3.6158082227377633e-27  3.6166211183588891e-27  3.6190886222629790e-27  3.6158227905556246e-27  3.6201413527579966e-27  3.6177179522655621e-27  3.6171417959586793e-27  3.6160135117896121e-27  3.6191483959996582e-27  3.6156332917794539e-27  3.6169161535902306e-27  3.6161173882012122e-27  3.6182268984910037e-27  3.6180964004431685e-27  3.6189344020383532e-27  3.6157802236347567e-27  3.6184700851387169e-27  3.6171933185202774e-27  3.6162652141642252e-27  3.6184751782114850e-27  3.6203390536990598e-27  3.6172066103753017e-27  3.6164949946021037e-27  3.2093169776752440e-27  3.3173301595519479e-27  2.8337621741354430e-27  3.6835372873586151e-27  3.7402474332957495e-27  4.6645009740190525e-27  3.5872838185951691e-27  3.6733031065381034e-27  3.5968336918237362e-27  3.6692111892068445e-27  3.5694456040017840e-27  3.6010144001231671e-27  3.5930520911187386e-27  3.5961618096856009e-27  3.6043855198795646e-27  3.6494542821272225e-27  3.5868692041914703e-27  3.6253124788377604e-27  3.6164111086549577e-27  3.6162815399756439e-27  3.6171291165285794e-27  3.6187720396507351e-27  3.6163407714358341e-27  3.6170546798152507e-27  3.6142015421582594e-27  3.6139150466042828e-27  3.6082737002189144e-27  3.6095731391302823e-27  3.6087406130850741e-27  3.6184402029864374e-27  3.6135808496379330e-27  3.6138341020397702e-27  3.6090232619427376e-27  3.6103889810320253e-27  3.6170667020439443e-27  3.6181674981393718e-27  3.6157841275923370e-27  3.6157149571023469e-27  3.6142665888111226e-27  3.6143667420311419e-27  3.6169448683009735e-27  3.6171187210963263e-27  3.6167215706429365e-27  3.6190137872465707e-27  3.6170930284507483e-27  3.6161337969501069e-27  3.6155523333178933e-27  3.6186499764823963e-27  3.6172975526760376e-27  3.6167970957663477e-27  3.6162545062686422e-27  3.6198135140858862e-27  3.6168597050075067e-27  3.6166693768201372e-27  3.6150950352612834e-27  3.6168039194859293e-27  3.6170769756829572e-27  3.6134980271646559e-27  3.5387451126521224e-27  3.5482697735480044e-27  3.6088700915402245e-27  3.6063772976865218e-27  3.6162891067200741e-27  3.6164524696557822e-27  3.6194476177492643e-27  3.6171266018254964e-27  3.6161109341700889e-27  3.6159246479301983e-27  3.6143361019538912e-27  3.6122480900594806e-27  3.6178156097809825e-27  3.6200159473399115e-27  3.6171609266239973e-27  3.6146158543875329e-27  3.6170256810571588e-27  3.6196673355778428e-27  3.6166498175410510e-27  3.6182156729357379e-27  3.6145995568457137e-27  3.6133147098307732e-27  3.6175569276229468e-27  3.6135750093494127e-27  3.6182092524319972e-27  3.6142960779005428e-27  3.6132580127690444e-27  3.6167521835837344e-27  3.6158087911957738e-27  3.6157769712286642e-27  3.6153151604098828e-27  3.6130065578420052e-27  3.6189900094140831e-27  3.6137485434733231e-27  3.6121632275754443e-27  3.6179113641720498e-27  3.6383366652158752e-27  3.6173065213544517e-27  3.6167504045237362e-27  3.6166673679589121e-27  3.6187545975207143e-27  3.6169781823365056e-27  3.6167597886585278e-27  3.6167238796548088e-27  3.6164547094014397e-27  3.6173575449958261e-27  3.6169226409532144e-27  3.6154626457423163e-27  3.6184291736305388e-27  3.6172074259060717e-27  3.6175438454320473e-27  3.6148633419653566e-27  3.6134382070210554e-27  3.6113366139863135e-27  3.6109094731149226e-27  3.6182313160337470e-27  3.6162877199832957e-27  3.6140736603676145e-27  3.6167702142065049e-27  3.6164984016492457e-27  3.6168311461895524e-27  3.6168545112496116e-27  3.6165837981780030e-27  3.6162067172450127e-27  3.6162754824966624e-27  3.6169861544967792e-27  3.6185528917074169e-27  3.6172448867016404e-27  3.6169798073387805e-27  3.6160940265404611e-27  3.6169001960223556e-27  3.6177823287470030e-27  3.6169775460551085e-27  3.6170527789243074e-27  3.6175847540932885e-27  3.6144296360269352e-27  3.6154661485391203e-27  3.6158378562073409e-27  3.6169827820260330e-27  3.6172295449565322e-27  3.6173798611163117e-27  3.6163004861128610e-27  3.6169406546993097e-27  3.6169062312039218e-27  3.6170607185880541e-27  3.6179062500788540e-27  3.6173319518790484e-27  3.6193789074846675e-27  3.6167279758131763e-27  3.6162443602808535e-27  3.6160009211980746e-27  3.6156316341781227e-27  3.6172062580860374e-27  3.6151712867997434e-27  3.6175593664281456e-27  3.6170302199181949e-27  3.6163807238035099e-27  3.6163747192861294e-27  3.6147695836194297e-27  3.6182717464985389e-27  3.6155508225444146e-27  3.6148459591680315e-27  3.6168927872809618e-27  3.6169129020261031e-27  3.6156666306375395e-27  3.6170451220696343e-27  3.6184802964178004e-27  3.6170679625163107e-27  3.6170250351818875e-27  3.6211303811781575e-27  3.6180912322731832e-27  3.6170509426290617e-27  3.6177011034248017e-27  3.6183851147093027e-27  3.6141673572264904e-27  3.6160312081317053e-27  3.6166491532648255e-27  3.6171183538267188e-27  3.6151620372884753e-27  3.6173573647351550e-27  3.6173927541190163e-27  3.6156751595614298e-27  3.6175648505190651e-27  3.6179032643776305e-27  3.6160186475681352e-27  3.6150337980106942e-27  3.6142878133496927e-27  3.6171305315102758e-27  3.6176527817253870e-27  3.6160649855563457e-27  3.6192212490240349e-27  3.6157558915838854e-27  3.6155508706602948e-27  3.6158457977260584e-27  3.6165952560507589e-27  3.6175911868722280e-27  3.6168413386418340e-27  3.6167558811531981e-27  3.6184719819998490e-27  3.6092480466869529e-27  3.6177870881546249e-27  3.6118054061406206e-27  3.6150004632218625e-27  3.6168731126307685e-27  3.6164503911805764e-27  3.6160024309772883e-27  3.6176578765255442e-27  3.6158991692228085e-27  3.6166728824496595e-27  3.6187431974463749e-27  3.6083453270115355e-27  3.6018488080165505e-27  3.5982928980215323e-27  3.6003260145786509e-27  2.9969296375386022e-27  1.0154037962232765e-26  7.5323073449807289e-27  2.9812848837294986e-27  2.8620357246908263e-27  3.5011371123672130e-27  3.2028922858326528e-27  3.3234845803620580e-27  3.5499920879563463e-27  3.4943065969800940e-27  3.6577576833997953e-27  3.6258179887680516e-27  3.5371121193014486e-27  3.5923706010881668e-27  3.4896913794474402e-27  3.6610061273433344e-27  3.5877868185986432e-27  3.6624286095323516e-27  3.6164872904058047e-27  3.6167963514590185e-27  3.6169576737362668e-27  3.6160303388503031e-27  3.6163108932261752e-27  3.6191597089483566e-27  3.6176900979199704e-27  3.5742628332955124e-27  3.5758513434727159e-27  3.5869375551426105e-27  3.6227028170714179e-27  3.6650644677719064e-27  3.5766778542339172e-27  3.5886092230263851e-27  3.6280083858380259e-27  3.6146797830724178e-27  3.6115469042849666e-27  3.6102467262484956e-27  3.6089157706698064e-27  3.6154985342842051e-27  3.6150662343626741e-27  3.6182123667758355e-27  3.6017899604228839e-27  3.6057377791270141e-27  3.6160104523315019e-27  3.6027348150266060e-27  3.6037838089324056e-27  3.6088187668592712e-27  3.6030717867593267e-27  3.5995152487484447e-27  3.6123110543123758e-27  3.6248509418858703e-27  3.6287061190531366e-27  3.5791570309515272e-27  3.6031238473441741e-27  3.6137570014574510e-27  3.6288376250285571e-27  3.6164881135948070e-27  3.6152300037557902e-27  3.6191136622097110e-27  3.6162558225586590e-27  3.3584582625589753e-27  5.2022341612908789e-27  4.1819521303807107e-27  4.6169917536817288e-27  3.2026414189080842e-27  3.4587167795502646e-27  4.2082231918639179e-27  1.7568993941715807e-27  3.3187191015758487e-27  2.8368229804678740e-27  1.2610412080949750e-28  1.5290549134095502e-27  4.0895838277774561e-27  3.6141528290847741e-27  3.6114588420065375e-27  3.6108504705420605e-27  3.6092711790234161e-27  3.6150766904947025e-27  3.6118394670696304e-27  3.6136317980790315e-27  3.6196366987714230e-27  3.6171284767967935e-27  3.5522145438478577e-27  4.1906007263471538e-27  3.4357121046902129e-27  3.3881978608355238e-27  3.7032273679134918e-27  3.6165208267295714e-27  3.6163505237468239e-27  3.6155079476700838e-27  3.6159991479377004e-27  3.6165271193053194e-27  3.6172538118133432e-27  3.6154477934711129e-27  3.7078539724704975e-27  3.7341491150318729e-27  3.6049045784048086e-27  3.3557823392414304e-27  3.3651365167274183e-27  4.6166994802565937e-27  3.9485258262753458e-27  3.5827765834456223e-27  3.2791398507664422e-27  4.0090201727171252e-27  3.7098728395342348e-27  3.5704610023325205e-27  3.6123101453574079e-27  3.6187597213137424e-27  3.0596183552619307e-27  3.7356515349764936e-27  2.8923924584533438e-27  9.8611676176493924e-27  4.9878535981723465e-27  3.6876426005286701e-27  3.3039422336920027e-27  3.4804380326007672e-27  3.4793155753613648e-27  2.4234123769243687e-27  3.5826172292518185e-27  3.6710198173982806e-27  3.5852448158618116e-27  3.6012766478367103e-27  3.6162801017304501e-27  3.6154129615892694e-27  3.6167199388235886e-27  3.6169648557078287e-27  3.6193390731420142e-27  3.5873586638293252e-27  3.2705781592794558e-27  3.7248956672233799e-27  3.3097849509279004e-27  3.7009730183410852e-27  3.1259828081599368e-27  3.3468704065908753e-27  3.5780881712120705e-27  3.5982765926468269e-27  3.5731957284241936e-27  3.5761399132284864e-27  3.6028280992130028e-27  3.6651407318778137e-27  3.6149078547556905e-27  3.6158209207898762e-27  3.6174340066976408e-27  3.6161011398210664e-27  3.6148672331451583e-27  3.6172342457538056e-27  3.6172673458857463e-27  3.6166843530672387e-27  3.6162503829683748e-27  3.6158451911721551e-27  3.6169337842623368e-27  3.6173624352533140e-27  3.4216317360145301e-27  4.2674364779582691e-27  3.4131433237133666e-27  3.6772554987621279e-27  3.5650125708421250e-27  3.8897447601255038e-27  4.1358367395015423e-27  3.6136909896975196e-27  3.6162560647835318e-27  3.6174371741694086e-27  3.6158919916213765e-27  3.6168146212723187e-27  3.6183212837925042e-27  3.6159765822275249e-27  3.6170885716116393e-27  3.6192798075164228e-27  3.6161936973052807e-27  3.4713161211941427e-27  3.6176200054854267e-27  3.7378128903187791e-27  3.6198701297477873e-27  3.5098153837820125e-27  3.6381339189523355e-27  3.5868405218648190e-27  3.6067551356310975e-27  3.6118002855811247e-27  3.6184380085544571e-27  3.6178840464229726e-27  3.6143149714208671e-27  3.6161259790495602e-27  3.6068515699485343e-27  3.6037030042047957e-27  3.6023134615648279e-27  3.5998287844064239e-27  3.6149574130903682e-27  3.6037523504616851e-27  4.7935838551239070e-27  3.2958732779022864e-27  3.4526623894032147e-27  3.4357447363370356e-27  3.5928458199188119e-27  3.6506518678288053e-27  3.8078322577803790e-27  3.6158305356697814e-27  3.6147409840891068e-27  3.6171009552135614e-27  3.6168950605150198e-27  3.6157995953254848e-27  3.6149313998759719e-27  3.6188611758684225e-27  3.4344125161193540e-27  3.6166881299772554e-27  3.6182353226004652e-27  3.6076298131507688e-27  3.6164130061035816e-27  3.6195347064469711e-27  3.6148961885759447e-27  3.6154649001904808e-27  3.6131904992073870e-27  3.6172085910205391e-27  3.6174930548462076e-27  3.6172427432325125e-27  -6.4644601412810397e-28  3.0910442366141460e-27  3.6141658906111738e-27  3.6180493133080452e-27  3.6145154409233778e-27  3.6171814338125710e-27  3.6170381335088397e-27  3.6167008490838712e-27  3.6160246220827142e-27  3.6161628490378082e-27  3.6134314333671478e-27  3.6936072082705773e-27  3.7783385771451962e-27  3.5328988452640390e-27  3.6170758252942292e-27  3.6146015642863542e-27  3.6182808354749456e-27  3.6171680703495253e-27  3.6058070732416035e-27  3.6041974704042850e-27  3.6085472765232902e-27  3.6344331823562380e-27  3.5673808654549651e-27  3.6165978528496901e-27  3.7945163635930799e-27  4.0013243777645392e-27  4.0283954268600774e-27  3.4709641060612024e-27  3.6150519603769324e-27  3.6192960323130317e-27  3.7083803301459498e-27  3.6241208105096333e-27  3.6289760699292182e-27  3.5828688804406501e-27  3.5748091352841611e-27  3.4032672407613964e-27  3.6257509187009967e-27  3.6197171217965172e-27  3.6221538690983283e-27  3.6079756019339625e-27  3.6005469409298161e-27  3.6293596083397644e-27  3.6309688549854112e-27  3.6136886209202759e-27  3.6149192833468470e-27  3.6100194507815023e-27  3.6480902537085953e-27  3.5982951271440247e-27  3.6298096311899385e-27  3.5774689740475798e-27  3.6150073066649457e-27  3.6501658942646475e-27  3.6400178970684240e-27  3.6133954487073933e-27  3.6414845847122946e-27  3.6185086630144019e-27  3.6178361897213794e-27  3.6177489868081738e-27  3.6164051434327440e-27  3.6163779706023706e-27  3.6198009533402206e-27  3.6186296730366493e-27  3.6135945451934600e-27  3.6179961866177319e-27  3.6164273788039717e-27  3.6414495752998872e-27  3.6570710536087391e-27  3.6019115638023184e-27  3.6029432659560697e-27  3.6589799284248824e-27  3.7312691667528908e-27  3.5807808040386595e-27  3.5471349649401182e-27  3.5992547405702553e-27  3.5841986842363274e-27  3.6150510188539142e-27  3.6172880064765717e-27  3.6201176904340494e-27  3.6218419606767980e-27  3.5956552874371971e-27  3.5994434415458502e-27  3.6121033811900114e-27  3.6126605589758739e-27  3.6281418507826332e-27  3.6238050007438445e-27  3.6131835393093239e-27  3.6184095752232692e-27  3.6140459020072242e-27  3.6161147811573477e-27  3.6227175134244429e-27  3.6205433900776786e-27  3.6204497497457711e-27  3.5370750864462355e-27  3.5380968044563747e-27  3.6718223168452833e-27  3.5415488554147702e-27  3.6154430015262952e-27  3.5205855717369292e-27  3.6181413814407327e-27  3.6176149883335647e-27  3.6141840219138796e-27  3.6189205135867330e-27  3.6180321675329535e-27  3.6168200407474781e-27  3.6165842492979356e-27  3.6159640802909161e-27  3.6189581813650768e-27  3.6140133963038787e-27  3.6277972112751903e-27  3.5990072322383248e-27  3.5798128074521434e-27  3.6661477918389615e-27  3.4530351709445154e-27  4.5694681643110301e-27  4.0562477739265257e-27  4.1301429663998536e-27  3.4217686038202309e-27  3.3067360401072248e-27  3.3873350833832581e-27  3.5558309583582844e-27  3.5721621679855522e-27  3.5100005022860216e-27  3.6535649388063864e-27  3.6589817219940044e-27  3.5760389880167680e-27  3.6423565623137857e-27  3.6637007601835647e-27  3.5977208790934958e-27  3.6909515737281292e-27  3.5703304302558213e-27  3.6344184709051675e-27  3.5982842515031358e-27  3.6418568074392483e-27  3.7091948403505022e-27  3.5795320241466959e-27  3.6714810546979292e-27  3.5866428231572919e-27  3.6260242279675424e-27  3.5970238020541071e-27  3.3299207375137421e-27  3.6053923278211887e-27  3.5181299868878270e-27  3.3253145464954997e-27  2.3795655207944146e-27  3.1413249364850663e-27  2.4515951662799289e-27  5.0206897636941484e-27  2.5846907430405939e-27  3.3902470913709190e-27  3.9947389618497535e-27  4.4207863102217693e-27  3.9842975645333267e-27  3.6317050530752090e-27  3.6287702287681098e-27  3.6097917814435188e-27  3.6287518960340452e-27  3.5480717393927008e-27  3.6449726214696079e-27  3.6764875480441162e-27  3.6238173811087117e-27  3.6358068843714422e-27  3.6010298080319622e-27  3.6552492874410584e-27  3.6915121898017477e-27  3.6251941517312033e-27  3.5961330484891790e-27  3.6218581448865794e-27  3.6203732945495879e-27  3.6201331822896270e-27  3.6166684513470522e-27  3.6025756658066213e-27  3.6270543144102635e-27  3.6232348246371768e-27  3.6139516028009884e-27  3.6146075032113049e-27  3.6150859989448878e-27  3.6187136241395696e-27  3.6228636622075560e-27  3.4434957330180303e-27  3.8411043723016573e-27  3.8274695357963530e-27  3.5466651161787184e-27  3.8128051562812708e-27  3.6036483732663046e-27  3.6075224022567631e-27  3.6347583390111680e-27  3.8680033736542437e-27  3.7424810044688363e-27  3.9034571730564700e-27  3.5096194736347602e-27  3.5216123546372181e-27  3.6779041429494811e-27  3.6872559755515729e-27  3.5329155173934037e-27  3.7927719450500976e-27  3.6272350841724446e-27  3.3299344209983850e-27  3.8649190525415202e-27  3.4502241220949951e-27  1.8772066671430881e-27  4.1012121550022615e-27  3.2533256279530272e-27  4.0584508294809062e-27  3.6998866443036373e-27  3.1605284267625532e-27  3.7246411884675038e-27  3.5774014723117557e-27  3.7777684367014134e-27  3.4488823152355800e-27  3.3950119973689134e-27  3.6690202838216584e-27  3.6886710064755985e-27  3.6125914506180496e-27  3.5018828733330745e-27  3.5390702908408914e-27  3.5587250047975855e-27  3.3497221565617560e-27  3.9296087786878639e-27  3.5940264409430811e-27  3.6209941234390864e-27  3.8147255272339741e-27  4.0681038543807346e-27  3.8982132903099439e-27  3.6373176090091948e-27  3.6421500361785067e-27  3.5242595817485016e-27  3.6603016126318876e-27  3.6593425131984892e-27  3.6780633501372091e-27  3.6272764136158390e-27  3.5928656681936965e-27  3.5794574478057447e-27  3.6121676696306699e-27  3.5707910481052490e-27  3.5687816532519638e-27  3.6658677725158005e-27  3.7020290341695242e-27  3.5978299046022742e-27  3.6897972189404285e-27  3.6103075469074663e-27  3.6896749065938967e-27  3.6012173342577080e-27  3.6539629086949819e-27  3.6340426543169201e-27  3.6170533737022692e-27  3.6144610191934435e-27  3.6302129125703860e-27  3.6146171950700461e-27  3.6055771734850353e-27  3.6093329413859213e-27  3.6216688244513836e-27  3.6066632178176186e-27  3.5998941088043361e-27  3.5415198877936045e-27  3.2664565502734920e-27  4.3938592306536603e-27  4.0210275523936528e-27  3.3738107956893404e-27  1.8970407276974692e-27  3.1856561788737141e-27  3.4825440412266253e-27  2.2165558679812266e-27  3.9839850712765932e-27  3.5952985636429319e-27  3.5644563507392136e-27  3.6368453506693898e-27  3.6718049248409016e-27  3.6878106867520126e-27  3.7611872252119464e-27  3.6536256679590345e-27  3.4127265728380143e-27  3.8806223377600100e-27  3.6087178438713622e-27  3.6058326850025223e-27  3.6145368342431167e-27  3.5756724275115130e-27  3.6833710677176426e-27  3.5724462434884892e-27  3.6210607583500748e-27  3.5879170084011522e-27  3.2558486845922729e-27  3.8899280763749428e-27  2.4417725350423836e-27  1.1105175554386543e-27  4.0165778753346798e-27  4.0321732415498208e-27  4.4919232390375787e-27  2.9942215767295170e-27  3.2745857028708835e-27  2.4765919815712612e-27  3.2379244062436272e-27  4.0158182675978085e-27  1.1978394770819867e-26  3.4016350948008548e-27  3.6041378817840199e-27  3.4667559969833339e-27  3.9051104474712875e-27  3.4835610666130856e-27  3.6569914363451170e-27  3.6283170857737072e-27  4.2733993416252792e-27  4.3867218061933487e-27  3.5203018671426780e-27  3.5423296115218991e-27  3.6342456624831961e-27  3.6173751915456633e-27  3.6328210533298584e-27  3.6048986557982234e-27  3.6164875155483640e-27  3.6078847681288741e-27  3.6215459731968702e-27  3.4825827606809026e-27  3.7775124878271708e-27  3.4276826222