<?xml version="1.0"?>
<VTKFile type="UnstructuredGrid"  version="0.1"  >
<UnstructuredGrid>
<Piece  NumberOfPoints="5928" NumberOfCells="27362">
<Points>
<DataArray  type="Float64"  NumberOfComponents="3"  format="ascii">-55.333333 5.757605 -12.917043  -54.6656255 5.5857695 -12.98827875  -54.66667575 6.244551 -12.6524385  -54.66667575 6.67858675 -13.478188  -54.0000185 6.731497 -12.387834  -53.99896825 6.072715499999999 -12.72367425  -53.99896825 6.50675125 -13.54942375  -53.997918 5.413933999999999 -13.0595145  -52.662503 5.070263 -13.201986  -53.3302105 5.242098499999999 -13.13075025  -53.33126075 5.90088 -12.79491  -53.33126075 6.33491575 -13.6206595  -55.333333 6.384615 -21.282051  -53.99999975 5.58033075 -20.44700375  -55.333333 5.59784775 -21.0675955  -55.333333 6.13521225 -20.55878875  -55.333333 5.885809500000001 -19.8355265  -53.99999975 4.793563499999999 -20.23254825  -53.99999975 5.330928 -19.7237415  -55.333333 5.348445 -20.34433325  -55.333333 4.8110805 -20.85314  -52.66666650000001 4.7760465 -19.6119565  -53.99999975 5.8297335 -21.170266  -52.66666650000001 5.274852 -21.058481  -52.66666650000001 5.025449249999999 -20.33521875  -53.99999975 5.04296625 -20.9558105  -50 4.165089 -20.834911  -51.33333325 3.93320325 -20.7322405  -51.33333325 4.47056775 -20.22343375  -51.33333325 4.719970500000001 -20.946696  -52.66666650000001 4.488084750000001 -20.8440255  -52.66666650000001 4.238682 -20.12076325  -52.66666650000001 3.7013175 -20.62957  -55.333333 5.387004 -18.389002  -55.333333 4.8496395 -18.89780875  -53.99999975 5.08152525 -19.00047925  -55.333333 5.09904225 -19.621071  -55.333333 4.561677749999999 -20.12987775  -53.99999975 4.54416075 -19.509286  -55.333333 4.312275 -19.4066155  -55.333333 5.636406750000001 -19.11226425  -55.333333 3.237546 -20.424229  -55.333333 3.7749105 -19.91542225  -53.99999975 4.00679625 -20.01809275  -55.333333 4.024313250000001 -20.6386845  -53.99999975 3.46943175 -20.5268995  -53.99999975 4.256199000000001 -20.741355  -50 -1.455467 -20.215637  -51.29820925 -1.36223625 -19.82111675  -50.635768 -0.9819005000000001 -19.46912825  -50.6435895 -1.7233505 -19.68243725  -51.28717899999999 -1.991234 -19.1492375  -51.93397725 -0.88866975 -19.074608  -51.94179875 -1.63011975 -19.287917  -51.2793575 -1.249784 -18.9359285  -51.271536 -0.5083340000000001 -18.7226195  -52.5964185 -1.2690055 -19.4265965  -50.65461975 -1.09435275 -20.3543165  -51.3092395 -0.7332385 -20.492996  -51.952829 -1.001122 -19.95979625  -51.29038775 -0.6207862500000001 -19.60780775  -52.618479 -0.01101 -20.770355  -52.59962725 0.10144225 -19.88516675  -52.60744875 -0.64000775 -20.09847575  -51.9450075 -0.259672 -19.74648725  -51.92615575 -0.14721975 -18.861299  -52.588597 -0.5275555000000001 -19.2132875  -52.5807755 0.2138945 -18.9999785  -51.96385925 -0.37212425 -20.6316755  -52.574358 -2.527001 -18.082838  -52.5665365 -1.785551 -17.869529  -52.58538824999999 -1.89800325 -18.75471725  -51.92294699999999 -1.5176675 -18.40272875  -52.57756675 -1.15655325 -18.54140825  -51.9151255 -0.7762175 -18.18941975  -52.558715 -1.044101 -17.65622  -51.9307685 -2.2591175 -18.61603775  -52.543072 0.438799 -17.229602  -52.5508935 -0.302651 -17.442911  -52.56974525 -0.41510325 -18.32809925  -51.907304 -0.03476750000000003 -17.97611075  -52.56192375000001 0.32634675 -18.11479025  -51.081305 -6.381108 -25.537587  -50.2917525 -5.826786500000001 -24.881461  -50.81097875 -5.304693 -24.88432825  -50.81097875 -5.82769725 -24.361324  -50.5406525 -5.274286500000001 -23.185061  -50.02142625 -5.27337575 -23.705198  -50.5406525 -4.751282250000001 -23.70806525  -50.5406525 -4.228278 -24.2310695  -50.02142625 -4.7503715 -24.22820225  -49.5022 -5.272465 -24.225335  -50 -2.075448 -22.924552  -49.48077375 -2.5975415 -22.92168475  -50 -2.59845225 -22.40154775  -50.27032625 -3.67486725 -23.0548065  -49.7511 -4.196960750000001 -23.05193925  -50.27032625 -4.1978715 -22.53180225  -50 -3.1214565 -21.8785435  -49.48077375 -3.12054575 -22.3986805  -48.9615475 -3.119635 -22.9188175  -50.27032625 -3.151863000000001 -23.57781075  -49.7511 -3.6739565 -23.5749435  -47.923095 -4.163822 -22.913083  -48.44232125000001 -3.6417285 -22.91595025  -48.9615475 -3.64263925 -22.39581325  -49.23187375000001 -4.71905425 -23.049072  -49.23187375000001 -4.19605 -23.57207625  -48.7126475 -4.7181435 -23.569209  -53.206907 -4.254875 -25.538219  -53.10749300000001 -3.05295625 -25.138389  -53.7385135 -3.5503595 -24.82973125  -52.93678675 -3.00550275 -24.1763145  -52.66666650000001 -1.7561305 -22.81441  -52.83737275 -1.803584 -23.7764845  -53.46839325000001 -2.30098725 -23.46782675  -54.27012000000001 -2.845844 -24.1212435  -53.6390995 -2.34844075 -24.42990125  -53.008079 -1.8510375 -24.738559  -52.40518025 -3.71001825 -24.88480225  -51.6034535 -3.1651615 -24.2313855  -52.30576625 -2.5080995 -24.48497225  -52.13506 -2.460646 -23.52289775  -51.5040395 -1.96324275 -23.8315555  -50.70231275 -1.418386 -23.17813875  -51.33333325 -1.91578925 -22.869481  -52.20635225 -1.30618075 -24.08514225  -52.035646 -1.25872725 -23.12306775  -51.4046255 -0.7613240000000001 -23.4317255  -50.80172675 -2.62030475 -23.57796875  -55.333333 -1.436813 -22.704268  -54.70231250000001 -0.9394097499999999 -23.01292575  -54.170706 -1.64392525 -23.7214135  -53.99999975 -1.59647175 -22.759339  -53.5396855 -1.146522 -24.03007125  -53.36897925 -1.0990685 -23.06799675  -54.071292 -0.4420065 -23.3215835  -54.8017265 -2.1413285 -23.41275575  -52.809251 0.5528 -23.938899  -53.4402715 0.05539674999999999 -23.63024125  -52.908665 -0.6491187500000001 -24.338729  -52.73795875 -0.60166525 -23.3766545  -52.10693825 -0.1042620000000001 -23.68531225  -50 -0.5404075 -19.383056  -50 -1.233091 -19.44385925  -50.635768 -0.06684100000000004 -18.63654725  -50.635768 -0.7595245 -18.6973505  -50 -1.010715 -18.6720815  -50 -0.3180315 -18.61127825  -50 0.374652 -18.550475  -50 -0.7627835000000001 -20.15483375  -50.635768 -0.2892170000000001 -19.408325  -50 -0.07010000000000005 -20.0940305  -50 0.152276 -19.32225275  -50 1.315267 -19.972424  -50 0.8449595 -19.2614495  -50.635768 1.09615 -19.2867185  -50.635768 0.4034665 -19.34752175  -51.271536 0.1843494999999999 -18.66181625  -51.271536 0.877033 -18.601013  -50.635768 0.6258425 -18.575744  -50 0.6225835 -20.03322725  -50 -0.565963 -17.128526  -50.635768 -0.3147725 -17.153795  -50.635768 0.155535 -17.8647695  -50.635768 -0.5371485 -17.92557275  -51.271536 0.4067255 -17.8900385  -51.271536 -0.285958 -17.95084175  -51.271536 -0.063582 -17.179064  -50 -0.0956555 -17.8395005  -50 -0.788339 -17.90030375  -51.907304 0.1876085 -17.204333  -51.907304 0.6579159999999999 -17.9153075  -55.333333 -5.383485 -18.390837  -55.333333 -4.529608000000001 -18.07038275  -54.64358925000001 -4.504441 -17.64474475  -54.64358925000001 -4.669364 -18.31383725  -53.9538455 -3.955243 -18.2368375  -54.64358925000001 -3.650564 -17.3242905  -54.64358925000001 -3.815487 -17.993383  -53.9538455 -3.79032 -17.567745  -53.9538455 -3.625397 -16.8986525  -55.333333 -3.675731 -17.7499285  -55.333333 -5.218562 -17.7217445  -54.64358925000001 -4.339518 -16.97565225  -55.333333 -5.053639 -17.052652  -55.333333 -4.364685000000001 -17.40129025  -55.333333 -4.723793 -15.714467  -55.333333 -4.034839 -16.06310525  -55.333333 -4.199762 -16.73219775  -54.64358925000001 -4.174595 -16.30655975  -54.64358925000001 -3.485641 -16.655198  -55.333333 -3.510808 -17.080836  -55.333333 -3.345885 -16.4117435  -55.333333 -4.888716000000001 -16.3835595  -55.333333 -1.967977 -17.10902  -54.64358925000001 -2.107733 -17.3524745  -54.64358925000001 -2.796687 -17.00383625  -54.64358925000001 -2.96161 -17.67292875  -53.9538455 -3.101366 -17.91638325  -53.9538455 -2.936443 -17.24729075  -53.9538455 -2.247489 -17.595929  -55.333333 -2.656931 -16.76038175  -55.333333 -2.821854 -17.42947425  -53.26410174999999 -2.387245 -17.8393835  -53.26410174999999 -3.076199 -17.49074525  -53.26410174999999 -3.241122 -18.15983775  -53.204962 4.256687 -25.538351  -51.8716465 3.71086825 -25.41748525  -51.87161225 4.24299725 -24.88539025  -52.4037215 3.71082325 -24.88545525  -51.602481 3.1649595 -24.2325595  -51.070406 3.1650045 -24.7645895  -51.07037175 3.6971335 -24.2324945  -50.5382625 4.2293075 -24.2324295  -50.53829675 3.6971785 -24.7645245  -50.538331 3.1650495 -25.2966195  -52.67285275 4.788861000000001 -25.538286  -52.1407435 5.321035 -25.538221  -51.33953725 4.24304225 -25.41742025  -51.339503 4.77517125 -24.88532525  -52.672887 4.256732 -26.070381  -52.14077775 4.788906 -26.070316  -52.140812 4.256777 -26.602411  -51.3395715 3.71091325 -25.94951525  -50.807428 4.77521625 -25.41735525  -50.80739375 5.30734525 -24.88526025  -51.60863424999999 5.853209 -25.538156  -51.6086685 5.32108 -26.070251  -51.0765935 5.321125 -26.602281  -50.80746225 4.24308725 -25.94945025  -51.076662 4.256867 -27.666471  -50.8074965 3.71095825 -26.48154525  -51.07662775 4.788996 -27.134376  -51.60870275 4.788951 -26.602346  -51.608737 4.256822 -27.134441  -50 2.073232 -22.926768  -50.2691655 2.61914075 -24.11169375  -50.26913125 3.15126975 -23.57959875  -50.8012405 2.61909575 -23.57966375  -50.28844225 3.71285775 -26.99869975  -50.8074965 3.19265025 -26.99985325  -50.01927675 2.648641 -26.332082  -50.01927675 3.166949 -25.813774  -50.538331 2.6467415 -25.8149275  -50.538331 2.1284335 -26.3332355  -49.5002225 3.1688485 -26.3309285  -50 0 -25  -49.48094575 0.5202075 -24.9988465  -50 0.518308 -24.481692  -50.2691655 1.58252475 -25.14830975  -49.75011125 2.10273225 -25.14715625  -50.2691655 2.10083275 -24.63000175  -50 1.036616 -23.963384  -49.48094575 1.0385155 -24.4805385  -48.9618915 1.040415 -24.997693  -50.2691655 1.06421675 -25.66661775  -49.75011125 1.58442425 -25.66546425  -49.48094575 1.5568235 -23.9622305  -49.48094575 2.0751315 -23.4439225  -49.75011125 2.62104025 -24.62884825  -48.9618915 2.077031 -23.961077  -48.9618915 1.558723 -24.479385  -50 1.554924 -23.445076  -47.923783 2.08083 -24.995386  -48.44283725 1.5606225 -24.9965395  -48.44283725 2.0789305 -24.4782315  -49.231057 2.622
[...]
<PointData  Scalars="c_HbCO2"> 
<DataArray  type="Float64"  Name="c_HbCO2"  format="ascii">6.3999999999999997e-22  6.3999999999999997e-22  6.3999999999999997e-22  -2.3420335786763881e-22  6.3999999999999997e-22  6.3999999999999997e-22  -1.1944534664838317e-22  6.3999999999999997e-22  6.3999999999999997e-22  6.3999999999999997e-22  6.3999999999999997e-22  -3.7615015830341221e-22  7.2331059547446225e-27  -4.6884297082281443e-27  1.2261454568772246e-27  4.7937183746453561e-27  2.2934652532608486e-26  6.9536419848507212e-27  1.2531959033182886e-26  1.7214686109109293e-26  1.3873990148841071e-26  7.8321375694976681e-26  4.3039670686112106e-27  1.2693944229868188e-26  -4.3496915484346477e-27  4.6046416625278256e-27  1.3397725341959244e-26  -1.6241999195241777e-26  -1.7758405103569142e-26  1.3032200810123249e-26  -4.1027329159220604e-27  2.0492134085844394e-26  4.3336945553224817e-26  1.9590259172818914e-25  2.7024509634736848e-26  -6.4130503217401742e-26  2.1259282073314393e-28  1.2781965342943021e-26  -3.1141327655381424e-26  6.4132822217742719e-26  -1.5958363294405252e-26  3.0560927111423659e-26  1.3425382264642321e-26  -2.8956116231992824e-26  1.9966364222816093e-27  2.1446149825025653e-27  -1.6148462093637717e-28  4.7392607916108152e-26  -5.3831740544083778e-26  -8.0385136785239316e-26  -2.8673011139304664e-26  2.1158805075983115e-25  -3.6188335327109997e-26  9.5817571406489074e-26  9.0545211115481206e-26  5.2557719102539747e-25  1.8409063344355632e-25  2.0131047564610395e-26  4.1402809709264460e-26  8.6093654256185872e-27  -6.4959162125964255e-26  5.0715791706059793e-26  -2.5479037430103364e-26  -6.1908221456249739e-26  -6.7035128494649051e-26  -3.1981542485910463e-27  1.1347707290186853e-25  6.0708533445307673e-25  1.5316264383093242e-26  1.5456665911732682e-24  -1.8700440979836404e-25  -2.6256253865943785e-25  -5.8566959333407024e-25  -3.4755341874663455e-27  -2.5134149454739188e-25  2.0821499289060718e-24  -5.1186792105326154e-25  8.7139042756869493e-24  -1.1179426847925451e-24  -4.9999893988935352e-25  -1.0760346837046846e-24  -8.5665481270716474e-25  3.8385139930413296e-27  4.6465754941603542e-27  4.5545938502725557e-27  4.4542978062881021e-27  5.8755351617528985e-27  6.1018757638946072e-27  5.7477589079256250e-27  5.3815557041923466e-27  5.3061190179426829e-27  5.1604938117155808e-27  4.7429328247270906e-27  6.7382735767299647e-27  1.1617198433182007e-27  1.9254788782991376e-27  1.5116464761246718e-27  5.9405654410019913e-27  3.6612773285118714e-27  1.2398733346712558e-26  5.0232169605328485e-27  5.5319444207113430e-27  4.9234395591736091e-27  4.4178911093053236e-27  5.1795409447003065e-27  7.1164899929809057e-27  3.7991043313452472e-27  4.2552449221897743e-27  4.4891753632230092e-27  3.8813625864170867e-27  4.4387894094211466e-27  3.6985304494758307e-27  5.1972896671129326e-27  6.2779929119036156e-27  5.6760438415983089e-27  4.4472182583861049e-27  4.3542067313083598e-27  4.4516255965123302e-27  5.0528065920387534e-27  4.3227597387347090e-27  6.2464743435526024e-27  4.6605648140852677e-27  5.0851612423012656e-27  5.2519735852452949e-27  1.0020705521273259e-26  7.4884539540947502e-27  5.6720574230822553e-27  7.4535761851705849e-27  2.5324432744257975e-27  5.6505939553767753e-27  4.7351174667711223e-27  4.7139473977531236e-27  4.4273409749559297e-27  4.6194192517896553e-27  4.9660801375036721e-27  5.3549197998757564e-27  4.9672097862942574e-27  4.6351585789330302e-27  5.0970653478692092e-27  5.4298093339809256e-27  5.2260601051772693e-27  6.0243243267466547e-27  6.7891630907674988e-27  -2.4563801644216456e-25  -1.7947881489799269e-26  1.9211166833914627e-25  2.5866969107496267e-25  4.4352455947290409e-25  5.6817261746709316e-25  6.3977079262221351e-25  5.0616190705268518e-26  -9.8411664380606987e-26  8.7884050137993083e-26  -3.8171964464064615e-26  1.3915524022283377e-25  3.2252201063028111e-27  -1.2675852198372432e-25  -1.7851157364198942e-25  5.9868692234279718e-26  8.9668179979040386e-25  1.8842069259866770e-25  1.1695755606429907e-26  8.1494667497755985e-24  5.0602858386232484e-24  -1.7234392546246960e-24  -2.0639920835244481e-24  -6.5495356547004125e-25  -1.3259368581471301e-24  8.4394867382089704e-24  -9.7543751532279889e-25  -5.0584628128187082e-25  3.4340566225080987e-24  -2.6308944607064588e-24  1.6293394955850260e-25  -1.7253985639986056e-25  -3.9582287521201484e-25  -2.9006766928694101e-26  3.4866035401408922e-25  -1.0954100579344824e-24  1.5280514538679055e-25  -9.6074362027271730e-25  5.6397867673477405e-24  7.6023161784530290e-25  -9.1196765666623346e-27  -8.7173624733743053e-25  1.2522116977987124e-24  5.7186014073670025e-25  1.3594164772417466e-23  3.8327660783807992e-24  -3.6707371764816618e-24  3.1141803060572744e-24  4.8243568627000531e-24  -4.5133515558349406e-25  6.5138627708765732e-24  -2.1406057854965556e-24  8.2797490879488745e-24  1.9341826173774083e-24  -3.5575967405581422e-25  -1.2741467999568341e-24  -1.0774491379859768e-24  3.4559784108925999e-24  3.6184041969302426e-24  1.4892352834197464e-24  -1.5575349138590528e-24  1.3836005864362940e-24  7.2363734456039289e-25  -5.0044098254148014e-25  3.8666949105364289e-27  4.2919164634262921e-27  4.3619555577547432e-27  4.3201461448315858e-27  6.1683698342188822e-27  4.9785145307684245e-27  6.4788431284122817e-27  5.4995298089330619e-27  5.3245192471422703e-27  5.3289712295916172e-27  3.9963044371160582e-27  3.8613800949976039e-27  4.5594886624450971e-27  4.7451566839626051e-27  3.9290440275078534e-27  4.0249710967321924e-27  3.9279521349740981e-27  4.4496491464385154e-27  4.3028461524002629e-27  4.5769534159594397e-27  3.9938125866097339e-27  3.9712890512552834e-27  3.8433096208887322e-27  4.4605716929105514e-27  3.7798816251010765e-27  4.3139983728433079e-27  3.8587910224853789e-27  3.5371942109029870e-27  3.9061444521940240e-27  3.6676936704541511e-27  1.5913289128219370e-27  5.3036469689669183e-27  4.9535564181825587e-27  4.3386986409909344e-27  4.3446801282122287e-27  4.7983196028435403e-27  5.1871820991627062e-27  5.0431371024259030e-27  4.6412498728482312e-27  4.5895202065474737e-27  3.5051376848183280e-27  8.8046901199389789e-27  -6.4187014985808784e-28  1.4254684364775383e-27  3.3597191060655515e-27  6.5668710249580284e-27  3.3326543742673459e-27  9.3754033811201753e-27  4.5150811433057986e-27  5.6030252536149708e-27  3.8717404610325207e-27  9.6944624200768101e-27  9.6035621597514639e-27  3.9344771514406906e-27  5.1403616005954237e-27  5.0760391588436780e-27  -2.1118242745540267e-27  4.1347435234369158e-27  3.9114203778900529e-27  3.9876090010066923e-27  4.2893538980079983e-27  4.4983670008673269e-27  4.0238788554829511e-27  -7.5772459309326831e-23  6.4191893288943372e-23  9.4211147651895427e-24  -2.1370666647472732e-23  4.8412725960764751e-23  2.4566062887468888e-23  -5.8486006115713876e-23  3.6269597336325451e-27  3.7237433732546400e-27  3.6511173174982728e-27  3.6419827858120216e-27  3.6962118918771870e-27  3.7286420324231983e-27  3.7088600152784276e-27  3.6398994374437116e-27  3.6550435775662268e-27  3.6556257083062306e-27  3.6573404913392915e-27  3.6648066219739716e-27  3.6438556268417537e-27  3.7350547623273035e-27  3.7679550243717173e-27  4.1954880769129857e-27  4.3227963697423640e-27  4.2576852431207180e-27  4.7871075452393747e-27  4.6970731627196276e-27  4.8834344073417761e-27  4.5860686525008109e-27  4.5504567413243636e-27  4.3841644307567820e-27  3.8488071772164781e-27  4.2370477704068908e-27  3.7625646697583814e-27  4.2142665143606904e-27  3.8826283441878176e-27  3.8037741769864018e-27  3.8639134056451420e-27  4.3711762982463424e-27  4.3713097145603495e-27  3.9030077098749499e-27  3.9479726418252493e-27  4.3815735128423582e-27  3.8575131201623263e-27  3.7873908180303134e-27  3.7496165658150624e-27  4.1762005099342419e-27  3.7965940854995588e-27  4.2147409705477381e-27  3.7646334276348434e-27  3.8861053661392808e-27  4.1278059893702734e-27  4.1846835878610742e-27  4.0220416839530671e-27  4.0672365866392461e-27  4.3584670056053814e-27  4.8891649372863509e-27  4.9489185210195987e-27  4.7069739069996107e-27  4.5617690747642036e-27  4.3234989193195765e-27  4.1952073531393240e-27  4.5093478847262498e-27  3.5900878073554432e-27  4.4710570862690621e-27  4.0783228279933261e-27  4.3152686593023062e-27  4.2247894816324893e-27  4.4207607254847611e-27  3.6794921524691600e-27  4.4326326032564045e-27  4.1492109396274318e-27  4.4241345260222878e-27  4.3664665959527530e-27  4.2553951559066808e-27  4.1819882545972631e-27  3.8144355851585951e-27  3.7470424662805658e-27  3.7273853510669499e-27  4.1259267853007860e-27  3.7189629413389403e-27  4.0082373486862376e-27  3.7397727750141738e-27  3.7298341346344299e-27  4.0597631593538882e-27  3.7989049866461614e-27  3.7312786857267345e-27  4.0701888331447271e-27  3.7519350659796928e-27  3.7996026180517013e-27  4.2762861871467967e-27  4.1552487399849771e-27  4.4439271887852313e-27  4.3619436734604049e-27  4.3406417373911400e-27  4.1345274017803507e-27  3.9924523985602792e-27  4.0127808444183069e-27  4.2845957102691412e-27  4.1946305199186160e-27  4.1304198932982214e-27  3.9446513644503124e-27  3.7028680029483655e-27  4.1739727804972316e-27  4.1828416631607720e-27  4.1235464852914546e-27  4.1551580558390856e-27  4.0210515008572327e-27  4.1115088413622632e-27  3.6357226538199740e-27  4.1623845994844793e-27  3.7500280211543760e-27  3.9656810621249607e-27  3.9447594299684171e-27  4.0619812707501253e-27  4.4785203393043189e-27  4.2391242106062001e-27  4.3370471344551871e-27  4.0156170638447827e-27  4.2825457324237435e-27  3.9142092257509698e-27  3.9702309544983932e-27  4.7770878585929901e-27  4.3442897855319607e-27  4.4910430733984223e-27  3.8596531421351945e-27  4.1087525402606170e-27  3.7359622541031463e-27  3.8368335050788690e-27  3.7221204143572715e-27  3.9211062806918197e-27  3.7848264174324352e-27  3.9757457092440917e-27  3.7749743663325731e-27  4.1909257428494370e-27  4.1383334588518021e-27  4.3382664337904635e-27  5.0619308514689059e-27  4.6327030296234500e-27  4.8750210018521381e-27  3.9687745465495060e-27  3.9418181996110645e-27  4.9159640631488090e-27  4.3539100879573670e-27  5.4324347209707000e-27  4.1361205469193013e-27  4.2355255963562294e-27  4.5190987111537250e-27  4.4029378455820244e-27  3.8047849096983815e-27  4.1721049916146168e-27  4.1160683055123080e-27  3.8705057330905322e-27  4.1120257188814201e-27  4.6970363570774417e-27  3.8865743249590699e-27  4.2044024551978080e-27  3.7950450526453926e-27  3.7276073778542035e-27  3.6757430553545820e-27  3.7384875740048636e-27  3.9128178715119355e-27  4.0292309728963602e-27  3.8268020346305740e-27  4.3450464053716576e-27  3.6802297295082956e-27  3.7047604117682084e-27  3.7179256123913898e-27  3.7788940710365031e-27  3.7155871234504841e-27  3.7397589494808894e-27  3.6748476391298748e-27  3.6728324609112434e-27  3.7419905914823228e-27  3.7737951908931800e-27  3.7290178997918310e-27  3.7236989805100352e-27  3.8746601644125926e-27  3.7667596520906305e-27  3.6725600763410230e-27  3.6775305595560227e-27  3.7400727530027999e-27  3.7519832386734530e-27  3.6303716087412440e-27  3.7297856350322412e-27  3.7072523017518194e-27  3.5841640620514500e-27  3.7867407500434361e-27  3.7094681517759971e-27  3.8172073025500448e-27  3.6048068595867422e-27  3.5482076080142092e-27  3.7574350263424073e-27  3.6809259366404726e-27  3.7406162578497091e-27  2.2618821245369911e-24  -3.0550590944311560e-24  3.1886738491135599e-25  -1.9107277975641089e-24  2.3201639181433957e-23  -1.1507636477943601e-25  -5.9876378897334154e-24  -3.8904925152302685e-24  4.1604599582844521e-24  8.7824782603381392e-24  -4.8832151719986081e-24  -1.4373131489569123e-23  -3.1154609289255677e-23  8.4835725858066548e-23  -1.0068107115198699e-23  -4.4670153050645836e-24  1.4825620260646992e-23  4.7681083521128975e-24  -1.1917858913024692e-23  -4.4230603193522740e-24  1.1523951854507346e-24  1.3616998035493605e-23  -2.6313198051511175e-24  -1.1298788709918036e-23  -2.7099114155222905e-23  7.1757186343053895e-23  -3.9488143804544230e-24  -6.5800977700717773e-24  6.3999999999999997e-22  -5.7972627570645278e-24  -4.6833513203590927e-23  -2.9571987626071103e-22  -3.3970773842361074e-22  -8.2347987182143430e-23  3.2523802359600667e-27  4.3695183922529615e-27  8.7466875179379669e-27  4.6421303164221536e-27  4.7708675962801391e-27  7.6112486194552423e-27  9.3807429636759327e-27  3.6318958260829899e-27  3.9304480718886749e-27  4.5065230442567685e-27  4.6252844518567703e-27  4.7930343001435180e-27  4.1140597035865582e-27  4.3130758387003447e-27  3.6607475278669433e-27  4.7047059520679620e-27  4.8048985183648531e-27  5.0466153416118857e-27  4.2364452759228293e-27  4.9697296628640513e-27  5.7700286487034671e-27  4.5874594338651522e-27  8.6152135563705996e-27  8.6544246322743735e-27  6.6603732056208636e-27  5.3748228072333135e-27  -6.0199410956908921e-27  4.0319807537739496e-28  -5.9592032021858166e-27  5.5403909032138227e-27  3.0351237406529172e-27  2.4204045883567054e-27  3.9675479724727218e-27  4.7837528200357064e-27  2.5254287857946146e-27  3.1208533081652463e-27  1.1716289933327692e-26  2.4060535674475158e-27  6.7005209045561024e-27  3.4815155030622519e-27  4.3013477950183303e-27  2.8489273397824630e-27  4.3884867430695339e-27  3.9568021257441654e-27  3.7943349862477046e-27  3.3915559162241133e-27  3.9702663141706576e-27  3.8289344466231288e-27  4.8709287414364423e-27  4.5802357411306351e-27  4.4675956130172887e-27  2.1882670988293958e-27  4.2960953770347021e-27  3.5115459445328286e-27  4.0482386916378972e-27  4.0460250481837889e-27  3.8749367491365517e-27  3.7482442326585635e-27  3.9779405083530639e-27  4.1380376325379807e-27  3.9230892932258654e-26  2.2225915547897637e-27  -7.8616921665717139e-28  -2.4887423332107903e-27  3.7528028564943407e-27  4.1378857905014303e-27  3.6153567073076472e-27  3.8624890296940432e-27  3.7451957919438028e-27  4.1191711797043600e-27  4.1422013504364505e-27  4.1343954926248779e-27  5.0145047296173378e-24  -1.8160359660495862e-24  -1.5162959194648381e-24  2.7820306833171361e-24  6.7475371248703688e-24  -1.8524963631662722e-24  3.7250302468251804e-24  -2.1920601590334858e-26  7.9251394876446021e-25  8.2763220729671433e-24  -1.3534930573886482e-25  2.5181241191118342e-25  -7.9526064842566531e-25  8.5044744676735830e-25  -1.6123304331691605e-24  -1.9814881978098809e-24  4.9736334109343259e-24  8.6464613487085874e-24  4.3272393221001059e-24  -6.5820545181729532e-25  -5.9072874538816368e-25  2.7538831281155495e-25  -6.9823897606026566e-25  9.4665332668650920e-25  1.1534618598006763e-25  -3.4926114747411874e-26  -2.9296749611155195e-25  -1.9170918446574309e-25  -4.1228649260291790e-26  -2.1375852846361534e-24  -2.0443558642405056e-24  3.0067210714222943e-24  2.6954210266312932e-24  3.3578039527251726e-27  3.4113214678968617e-27  4.2912507934116860e-27  4.2137526109822579e-27  4.7596766061770907e-27  4.5551503948437842e-27  4.5288677769290288e-27  4.4777882492231683e-27  3.9436220241664353e-27  4.4061642973401701e-27  4.0279942746868388e-27  4.1513261502300330e-27  3.9319431921275227e-27  3.5547795791738884e-27  3.8085422531986215e-27  4.1935573557525665e-27  3.5991222115352825e-27  3.8019069620545739e-27  3.9248743175888045e-27  4.2437845314556648e-27  4.2817766595038279e-27  4.0962015678735636e-27  4.0916574263768381e-27  3.8844675188546673e-27  3.8007515753024332e-27  3.7939493399543813e-27  3.7781393151593269e-27  4.0045777766289135e-27  3.6990532962417442e-27  4.8470831167312009e-27  5.0654475848751614e-27  5.0795910387710514e-27  -3.5942937240576012e-25  -5.2930041718775248e-25  -1.1053552467371299e-24  1.1523151810462790e-24  -3.8564251141775664e-25  -1.6594043912665332e-24  2.4675560898188280e-24  -2.6649153109903203e-24  -8.4498823655255550e-25  3.6947158443644537e-24  4.7434904345911344e-24  -6.0075330244980022e-25  -1.7346085831293598e-25  -3.0163082487578715e-24  -5.2413819626549088e-25  9.9185297735010387e-25  6.2261611080904466e-26  5.6244155243785760e-25  -7.6275690754590919e-25  4.3079958552199722e-25  -4.1833343588364262e-25  -2.6474037619638504e-25  -2.5691039955431736e-24  -1.1464318971307054e-25  3.0789076756914727e-25  -2.0206400844217470e-24  5.4942281801571397e-26  1.4569633546685842e-25  -5.1479902882874361e-25  1.6237264615493269e-26  -2.4048793861766174e-24  9.2219861827823458e-25  -8.3569638385893208e-25  3.6334367033510931e-25  -5.5257936630294962e-26  -1.5891975676144078e-24  2.4681423558746580e-25  -1.1352503776105052e-25  -5.4530817444875447e-25  8.3383325338226293e-26  -4.7936988600716178e-25  -5.7521205789737373e-26  -1.1731823492225652e-25  3.6491847812722368e-27  3.7131724262791284e-27  3.6684609493947250e-27  3.7089040175290308e-27  3.9400641095047288e-27  3.7342881805832751e-27  3.6652764925461626e-27  3.7340986073804715e-27  3.8129760063960443e-27  3.7073158370234417e-27  3.6961484306131364e-27  3.6996813473646053e-27  3.6899197288570670e-27  3.7641548635816264e-27  3.6789580581295136e-27  3.7526606211197911e-27  3.6442251492023843e-27  3.7127654126568045e-27  3.6994112847155083e-27  3.6818336844926327e-27  3.8327831204316044e-27  3.7144513867703697e-27  3.7481823074900943e-27  3.6791499144343080e-27  3.6738131336621203e-27  3.7648764876237470e-27  3.6981913776955072e-27  3.8320228785897066e-27  3.7408981039315585e-27  3.6665136919759343e-27  3.7066757463066025e-27  3.7064915951785357e-27  3.7345619949691550e-27  3.6858247728731301e-27  3.7515729850966262e-27  3.8378124260504691e-27  3.8946915996577636e-27  4.0422458131810217e-27  3.9456319715309727e-27  3.9610362946355912e-27  3.9992342918069116e-27  3.9347290124136946e-27  4.0194652555789254e-27  4.2364908441027283e-27  4.1645328712144262e-27  4.0728759958146782e-27  4.0867417186981861e-27  4.1074868691301465e-27  4.1622258217639087e-27  3.9155774416785363e-27  4.0142688079630620e-27  3.9480100291608728e-27  4.2366080693459627e-27  4.1158986890461306e-27  4.0874827641799861e-27  3.8960048885282235e-27  4.0418154948865349e-27  4.2282890853744273e-27  4.0487572810751403e-27  1.5224819346630525e-23  3.5077320716074826e-24  -1.8500760172956363e-23  -1.4922818831837093e-23  5.0245934484912516e-23  -6.1711547921911437e-24  -4.7902009492700011e-24  3.0411824110278885e-24  6.7313566934913563e-23  8.1116521015520786e-24  -2.9333065702426818e-23  8.8824231777317207e-23  4.5279895917232844e-24  2.2685887003314589e-23  6.3999999999999997e-22  3.0178460021841782e-23  -2.8197711019984146e-22  -9.8202835620301381e-23  4.3802386298275297e-23  2.1852694822915196e-23  5.3875074122475203e-23  6.3999999999999997e-22  6.3999999999999997e-22  -2.5710943427801087e-22  3.3934020936216815e-23  -2.1453178587567409e-22  -9.8258001857600834e-23  6.3999999999999997e-22  -3.1345848260494183e-22  5.0033880265914441e-24  -9.3584233913780807e-25  -2.5865937899926448e-23  -5.9737423814483524e-24  2.6412413845566210e-24  6.3999999999999997e-22  6.3999999999999997e-22  -2.6815546293387371e-22  -2.7787346549715556e-22  7.2779249920662869e-23  -1.1354318426568014e-22  2.8430591517778605e-23  8.1663333785727865e-23  -1.4500323639574357e-22  6.3999999999999997e-22  1.4956862205720408e-24  -6.7319201578109052e-23  4.1335768335000601e-23  2.6667267902629874e-23  -2.4173223959627380e-23  1.0319709142396858e-23  -1.8045556037979030e-23  2.1284558017838847e-24  -1.3404277597246342e-22  -7.9413415324298634e-24  9.0693930540555213e-23  4.4678868718686637e-23  -2.0896519774711100e-23  -1.2498771534982036e-23  -1.7264847422240047e-24  -1.4404040798037900e-23  -1.5081083308183743e-23  -1.7544467943918745e-24  -1.0936247516709984e-24  6.3999999999999997e-22  6.3999999999999997e-22  -2.8255005758543597e-22  -2.7682922166600573e-22  6.3999999999999997e-22  -2.3993208375660861e-22  -2.0097174983033288e-22  3.8658067542204637e-23  4.1883560731132773e-23  8.1809461484430845e-23  6.3999999999999997e-22  6.3999999999999997e-22  2.0942906289840917e-23  -1.9263283935642765e-23  6.3999999999999997e-22  6.3999999999999997e-22  6.3999999999999997e-22  -2.2312387532672971e-22  -1.7362186516265660e-22  6.3999999999999997e-22  6.3999999999999997e-22  -2.951641