<?xml version="1.0"?>
<VTKFile type="UnstructuredGrid"  version="0.1"  >
<UnstructuredGrid>
<Piece  NumberOfPoints="6854" NumberOfCells="27770">
<Points>
<DataArray  type="Float64"  NumberOfComponents="3"  format="ascii">12.762923 -48.953436 -21.283641  11.601017 -47.389573 -20.00941  10.558215 -47.3894005 -21.0523845  10.550101 -48.4352365 -20.0146625  8.337279000000001 -47.917037 -18.745684  9.388195 -46.8713735 -18.7404315  8.345393000000001 -46.871201 -19.783406  8.353507 -45.825365 -20.821128  9.396309 -45.8255375 -19.7781535  10.439111 -45.82571 -18.735179  12.767621 -53.206402 -17.025977  12.6546495 -50.5399175 -15.8054335  11.590475 -50.539886 -16.869639  11.5915135 -51.603201 -15.8052855  13.830757 -52.1431185 -17.026125  13.8297185 -51.0798035 -18.0904785  12.7665825 -52.14308699999999 -18.0903305  12.765544 -51.079772 -19.154684  14.893893 -51.079835 -17.026273  10.415406 -50 -14.584594  14.895902 -53.206407 -14.897691  14.760749 -50.5397785 -13.699472  14.740248 -51.6032035 -12.6565485  13.697414 -51.6032035 -13.6993825  15.959237 -52.142982 -14.8977805  17.022572 -51.079557 -14.89787  15.803583 -50.5397785 -12.656638  12.498926 -50 -12.501074  13.54176 -50 -11.45824  14.584594 -50 -10.415406  2.12453 -44.694372 -36.181098  2.1242935 -42.119619 -34.75608800000001  2.124692 -43.1836885 -33.6916195  1.062265 -43.1827075 -34.7550275  3.1865585 -43.6312835 -36.1821585  4.2489855 -43.63226450000001 -35.1187505  3.186957 -44.695353 -35.11769  4.249384 -44.696334 -34.054282  4.248587 -42.568195 -36.183219  0 -41.671043 -33.328957  8.497763000000001 -38.314348 -36.187889  7.404592500000001 -36.847608 -34.7478  7.403092000000001 -37.890382 -33.706526  6.349558 -37.8970215 -34.7534205  4.201353 -37.479695 -33.318952  5.256387500000001 -36.4302815 -33.3133315  5.254887 -37.4730555 -32.2720575  6.308421 -37.466416 -31.225163  6.3099215 -36.423642 -32.266437  6.311422 -35.380868 -33.307711  6.375125 -44.697854 -31.927021  6.347429999999999 -43.1755805 -29.476989  5.2841695 -43.1749865 -30.5408435  5.2804135 -44.218725 -29.5008615  7.438385499999999 -44.698448 -30.8631665  8.501645999999999 -44.699042 -29.799312  6.343674 -44.219319 -28.437007  4.185702 -43.739596 -27.074702  4.189458 -42.6958575 -28.114684  4.193214 -41.652119 -29.154666  10.625718 -42.573079 -29.801202  10.577175 -41.059952 -27.362873  9.513374000000001 -41.059448 -28.4271775  9.505876499999999 -42.1055725 -27.3885505  11.689519 -42.573583 -28.7368975  12.75332 -42.574087 -27.672593  10.5696775 -42.1060765 -26.324246  8.386035 -41.638066 -24.975899  8.393532499999999 -40.5919415 -26.014526  8.40103 -39.545817 -27.053153  17.010096 -42.576164 -23.41374  15.834273 -39.995767 -23.1699595  15.835677 -41.05933 -22.104993  14.794856 -41.05886599999999 -23.146278  17.008692 -41.512601 -24.4787065  17.007288 -40.449038 -25.543673  14.793452 -39.995303 -24.2112445  12.579616 -39.541568 -22.878816  13.620437 -39.542032 -21.837531  14.661258 -39.542496 -20.796246  17.020145 -48.953426 -17.026429  15.810464 -47.3919295 -15.797607  15.8025155 -48.4398385 -14.7576465  14.7622455 -48.439047 -15.7987075  12.504346 -47.924668 -14.570986  13.5525645 -46.8775505 -14.5698855  13.544616 -47.9254595 -13.529925  14.584886 -47.926251 -12.488864  14.5928345 -46.878342 -13.5288245  14.600783 -45.830433 -14.568785  10.622169 -38.316611 -34.06122  10.581709 -36.8450495 -31.5732415  10.582167 -35.7798325 -32.6380005  9.518359499999999 -36.84439 -32.6372505  12.749326 -37.252713 -32.997961  11.6855185 -38.3172705 -32.997211  11.6859765 -37.2520535 -34.06197  12.749784 -36.187496 -34.06272  12.748868 -38.31793 -31.933202  8.41455 -35.372169 -31.213281  17.024297 -53.206351 -12.769352  16.8410615 -51.6031755 -10.555763  18.0877915 -52.142879 -12.7693295  18.0885635 -53.2062355 -11.705201  19.15283 -53.20612 -10.64105  19.152058 -52.1427635 -11.7051785  19.151286 -51.079407 -12.769307  6.372464 -40.441859 -36.185677  4.233259 -41.07367499999999 -33.6930665  5.285772 -40.0032895 -33.7109385  4.232632 -40.0096305 -34.7577375  6.373091000000001 -41.5059035 -35.12100599999999  6.373718 -42.569948 -34.056335  5.286399 -41.067334 -32.6462675  2.0928 -39.577402 -33.329798  3.14594 -39.571061 -32.282999  4.19908 -39.56472 -31.2362  12.756446 -44.700945 -25.542609  11.6162 -43.1683035 -24.2154965  11.606438 -44.215913 -23.177649  10.5634835 -44.216078 -24.2204385  8.370521 -43.731211 -22.898268  9.423237499999999 -42.6834365 -22.893326  9.413475500000001 -43.731046 -21.8554785  10.45643 -43.730881 -20.812689  10.466192 -42.6832715 -21.8505365  10.475954 -41.635662 -22.888384  3.170616 -40.00850699999999 -35.820877  3.1706935 -41.0727985 -34.7565085  2.1242935 -41.080035 -35.795672  4.2485095 -41.5039035 -37.2475875  4.248432 -40.439612 -38.311956  2.124216 -40.0157435 -36.8600405  0 -39.591875 -35.408125  1.0464 -39.5846385 -34.3689615  10.631837 -46.826698 -25.541466  9.499546500000001 -44.2156955 -25.2847585  9.501179 -45.2789545 -24.219867  11.6941415 -45.7638215 -25.5420375  11.692509 -44.7005625 -26.606929  10.6302045 -45.76343900000001 -26.6063575  10.628572 -44.70018 -27.671249  12.69847 -34.7341915 -31.567338  11.6338825 -35.7752595 -31.590858  11.6357085 -34.73303850000001 -32.6312525  13.8125455 -36.188649 -32.9988055  14.875307 -36.189802 -31.934891  12.696644 -35.7764125 -30.5269435  10.521633 -33.278581 -31.199785  10.519807 -34.320802 -30.1593905  10.517981 -35.363023 -29.118996  1.062051 -42.118617 -35.819332  2.124316 -43.6302815 -37.2454025  2.124102 -42.566191 -38.309707  3.1863445 -42.567193 -37.24646300000001  14.891486 -48.953404 -19.15511  14.76921 -46.3278235 -17.902966  14.770682 -47.3907095 -16.8386085  13.7063525 -47.3906985 -17.902949  15.9543435 -47.890529 -19.155127  15.9558155 -48.953415 -18.0907695  17.018673 -47.89054 -18.0907865  17.017201 -46.827654 -19.155144  12.521219 -45.827993 -16.650788  16.86794 -50.5397035 -11.5923565  15.8044455 -51.6031755 -11.592379  15.62121 -50 -9.37879  16.657826 -50 -8.342174  12.6973715 -36.841076 -29.4615525  11.6334245 -36.84047649999999 -30.526099  11.595436 -49.500358 -17.904206  10.5497255 -50.539886 -17.9103885  8.333907 -50 -16.666093  9.3796175 -48.960472 -16.6599105  9.3746565 -50 -15.6253435  10.420367 -48.960472 -15.619161  10.425328 -47.920944 -16.653728  15.8241665 -42.107482 -21.068352  14.785529 -42.10597199999999 -22.108499  12.560962 -41.63578 -20.803258  13.61111 -40.589138 -20.799752  8.497714 -40.443543 -34.058742  7.403067500000001 -38.9549795 -32.6419525  6.3495335 -38.961619 -33.688847  6.348397 -40.0041315 -32.647471  5.253750500000001 -38.515568 -31.2306815  4.2002165 -38.5222075 -32.277576  6.349032 -41.068278 -31.58269  7.435716 -41.50674549999999 -34.0575385  8.498349000000001 -41.5076895 -32.993961  7.436351 -42.570892 -32.9927575  8.498984 -42.571836 -31.92918  7.399529 -39.9988375 -31.601633  7.400164 -41.062984 -30.536852  5.250212 -39.559426 -30.190362  6.301344 -39.554132 -29.144524  6.3048825 -38.510274 -30.1848435  12.759909 -46.827146 -23.412946  11.6081695 -45.2790135 -22.1128175  10.565215 -45.2791785 -23.155607  12.7581775 -45.76404549999999 -24.4777775  10.5712405 -43.1695055 -25.259254  9.507303499999999 -43.169123 -26.323574  11.690946 -43.6371335 -27.671921  12.754883 -43.637516 -26.607601  3.1707565 -37.9035435 -37.9257  3.170763 -38.9678335 -36.8614035  2.124216 -38.9693065 -37.9064775  4.2484255 -39.375322 -39.3762525  4.248419 -38.311032 -40.440549  2.1242095 -37.9050165 -38.970774  0 -37.499001 -37.500999  1.046547 -37.497528 -36.455925  2.093094 -37.496055 -35.410851  11.614637 -42.1048745 -25.2804885  9.430994500000001 -41.636864 -23.9321415  8.378278 -42.68463850000001 -23.9370835  6.349531000000001 -36.85475750000001 -35.7957115  4.201326 -36.437431 -34.361243  4.201299 -35.395167 -35.403534  5.2563605 -35.3880175 -34.3556225  8.4667955 -36.8487395 -33.6844655  9.559965999999999 -38.3154795 -35.1245545  8.465294999999999 -37.8915135 -32.6431915  7.361485500000001 -36.4192925 -31.219222  7.362986 -35.3765185 -32.260496  10.623341 -36.186409 -36.19025  10.5827115 -33.673045 -34.7442435  10.5822595 -34.7382545 -33.679486  9.519038 -34.737711 -34.743251  11.6870145 -35.121743 -36.1912425  12.750236 -35.1222865 -35.1274775  11.6865625 -36.1869525 -35.126485  12.750688 -34.057077 -36.192235  8.414735 -33.289013 -33.296252  -2.128413 -42.564387 -38.3072  -1.0642065 -42.117715 -35.8180785  -0.00194150000000004 -43.6293795 -37.244149  -0.002155499999999977 -42.56528900000001 -38.3084535  0 -44.692308 -38.307692  1.062051 -43.6292495 -38.3086995  1.062265 -44.69334 -37.244395  -1.0642065 -43.6283475 -38.307446  9.492672000000001 -46.3260315 -23.181297  8.4490035 -46.32723350000001 -24.223764  6.26617 -45.827769 -22.906062  7.3183455 -44.77949 -22.902165  7.3098385 -45.826567 -21.863595  8.362014 -44.778288 -21.859698  12.749907 -40.447026 -29.803067  11.6285725 -38.9492725 -28.422155  10.5754685 -39.9964215 -28.42811  10.581401 -38.95137 -29.467229  8.412895000000001 -37.455714 -29.131391  9.454134 -38.498668 -27.047198  9.4600665 -37.4536165 -28.086317  8.406962500000001 -38.5007655 -28.092272  10.507238 -37.451519 -27.041243  6.374034 -36.183265 -40.442701  5.286937 -34.7474755 -38.965588  4.2326795 -34.754618 -40.012703  4.2329845 -35.794764 -38.9722515  2.091935 -35.406263 -37.501802  3.1455825 -33.3188285 -38.53559  3.1458875 -34.3589745 -37.4951385  2.09163 -34.366117 -38.5422535  2.091325 -33.325971 -39.582705  4.19984 -33.311686 -37.488475  5.283466000000001 -42.1110335 -31.6055005  6.346099000000001 -42.11197749999999 -30.541923  4.196147 -40.6084195 -30.195433  4.2323965 -43.182868 -31.5847355  6.3744215 -43.63390099999999 -32.991678  4.231693 -42.118915 -32.6493925  2.089668 -41.667882 -31.24245  3.141441 -41.6600005 -30.198558  8.466174000000001 -38.95568400000001 -31.578142  9.5608205 -40.4442475 -32.9949315  10.623927 -40.444952 -31.931121  8.462635500000001 -39.99954200000001 -30.5378225  11.59951 -46.326428 -21.0740625  12.761416 -47.890291 -22.3482935  10.556
[...]
<PointData  Scalars="c_HbCO2"> 
<DataArray  type="Float64"  Name="c_HbCO2"  format="ascii">3.5800244510611832e-27  3.5381799452660662e-27  3.5413432667073020e-27  3.6385655315979425e-27  3.5878466491654729e-27  3.5536398076101617e-27  3.5639686097098020e-27  3.6508734849927844e-27  3.6251667873709978e-27  3.6445693508308663e-27  3.8884252081630310e-27  3.2464244159564144e-27  2.9201632450100459e-27  3.2029989298909561e-27  3.8830310391137805e-27  3.7060204684639201e-27  3.8517840165240381e-27  3.6346583582370782e-27  3.6117631554355018e-27  3.6018220751314568e-27  3.8819261540233278e-27  2.6318271300750230e-27  3.5267641079568309e-27  3.4196746596840980e-27  4.0313992914635493e-27  3.6622566093396823e-27  3.2737215040364170e-27  3.5761732131488755e-27  4.4366162932258542e-27  3.6152727235423285e-27  3.9411774238807555e-27  2.8572659918696231e-27  2.3777691102039553e-27  3.1784363022904666e-27  3.9959461623463495e-27  3.7837899393890700e-27  4.0356734650944054e-27  3.6177689743843312e-27  3.6150926165485360e-27  3.3580081742274587e-27  3.5847412002144118e-27  3.5677663413020330e-27  3.5676561577600120e-27  3.5761754092412710e-27  3.6608843121248028e-27  3.5660054830807752e-27  3.5748104495406609e-27  3.6267412756468767e-27  3.6160625539987038e-27  3.6239060303202512e-27  3.5398988229885343e-27  3.5806350389862526e-27  3.4826179933565599e-27  3.4829085334315745e-27  3.6665438552147138e-27  3.5868835245371587e-27  3.5884645115015248e-27  3.6610395841698258e-27  3.6014167109953459e-27  3.6590719644770190e-27  3.6083396923637925e-27  3.6078744180808343e-27  3.6008291611120941e-27  3.6009035685835580e-27  3.6191478667114089e-27  3.6142436822603829e-27  3.6092203707873766e-27  3.6192549746317314e-27  3.6133615740103349e-27  3.6178575347654501e-27  3.6157508872575966e-27  3.6155831951874024e-27  3.6145017934168812e-27  3.6139991268575096e-27  3.6171546524910539e-27  3.6164376857282594e-27  3.6154791177312072e-27  3.6170774531678987e-27  3.6158607782986275e-27  3.6172362756785098e-27  3.5612180294133749e-27  3.5227942970263415e-27  3.6606623656067205e-27  3.6166269342218543e-27  3.5938844654324023e-27  3.5357176695939566e-27  3.6356764970524979e-27  3.5616396300206721e-27  3.5890699186532009e-27  3.6447856412988378e-27  3.6080729009829194e-27  3.6075158431827313e-27  3.6080345726108766e-27  3.5997638848911471e-27  3.6155762854156197e-27  3.6199428503002099e-27  3.6166521302067119e-27  3.6145962995124480e-27  3.6144369272138186e-27  3.6161326560666347e-27  3.7940234106941367e-27  3.5700724641867601e-27  3.8115941676524831e-27  3.4020885485132143e-27  3.8169096710926327e-27  3.9174975666764739e-27  3.6282739742592640e-27  3.5376124822861036e-27  3.6380521631690244e-27  3.4737374792436051e-27  3.5659044081151079e-27  3.6073920790828968e-27  3.5399655963888170e-27  3.4789145584202650e-27  3.3898383364248412e-27  3.5488206938442948e-27  3.6602309832503385e-27  3.6117455751256287e-27  3.6073418007460056e-27  3.6064628050229900e-27  3.6078057675224892e-27  3.6259696037023385e-27  3.6097682966624343e-27  3.6153272421592745e-27  3.6248686963588755e-27  3.6102482779910181e-27  3.6181681836405950e-27  3.0201785030344355e-27  3.7449099975296580e-27  2.3497788915756135e-27  3.7872981381669678e-27  3.6157883760499087e-27  2.8381041656400718e-27  3.3444521094575220e-27  6.4875884761929857e-27  3.5980774896052354e-27  3.5997325368060222e-27  3.5893934564153766e-27  3.6216297866058633e-27  3.6183852269135933e-27  3.6262690332651781e-27  3.6068929952979027e-27  3.6132658102179503e-27  3.6104868202211552e-27  3.6106157285140607e-27  3.6194963576205626e-27  3.6159939970019747e-27  3.6133979950703532e-27  3.6157583460299319e-27  3.6163843389883803e-27  3.6164055012295646e-27  3.3695921601438029e-27  3.2700317159589166e-27  3.9649390915911071e-27  4.0573617350134858e-27  3.5754959273135611e-27  3.6004241022061937e-27  3.5388308356230329e-27  3.5424872651098085e-27  3.6460532542717571e-27  3.6155773013872906e-27  3.6494318424389559e-27  3.5992821717208947e-27  3.6509818550350389e-27  2.9066965386012213e-27  3.3047142285442730e-27  3.4785784203753420e-27  3.7072905887353002e-27  3.6133959063059708e-27  3.6105902333938712e-27  3.7013408786968540e-27  3.2623840735101300e-27  3.5775286576139686e-27  5.3486708721275254e-27  3.5793905130876334e-27  5.0169462780961537e-27  3.5037682819633828e-27  3.6135387679076454e-27  3.6139868324766821e-27  3.6181987897045472e-27  3.6153115426844839e-27  3.5869956273602821e-27  3.5699623267520809e-27  3.5779971039601063e-27  3.5812400643620816e-27  3.5686437917035527e-27  3.6073058959345260e-27  3.5793817523693731e-27  3.6638056189677884e-27  3.6230865568189547e-27  3.6665830287802203e-27  3.5874020388538893e-27  3.5696481223869541e-27  3.5715070228027308e-27  3.5746515392116313e-27  3.6271694669932877e-27  3.6152140219541643e-27  3.6015316396502491e-27  3.5942117188159773e-27  3.5924687638940246e-27  3.6235349607209862e-27  3.6055395334580468e-27  3.5996908836084953e-27  3.6175363718059160e-27  3.6179837222287889e-27  2.9323629946664818e-27  3.7254450751252715e-27  2.3865091134723190e-27  3.7241107823038069e-27  3.7120468899938936e-27  2.1946288454324506e-27  3.4592041365765744e-27  6.2484704932411782e-27  3.3764559428737500e-27  3.6101316503828367e-27  3.6122533128891697e-27  3.6087463943009295e-27  3.5728200016698224e-27  3.6088244857756220e-27  3.6606845063952348e-27  3.5782453467283129e-27  3.5948082257753288e-27  3.6257620652695396e-27  3.5971124778782798e-27  3.6054040530087944e-27  3.6037538982248185e-27  3.6082101561349365e-27  3.6077629734691992e-27  3.6068724919667628e-27  3.5983332619259283e-27  3.6165727206466315e-27  3.6160552148799112e-27  3.6192217906104598e-27  3.6145816784068650e-27  3.6178200846225320e-27  3.3432771809838257e-27  4.2206013236025217e-27  3.7217597941956592e-27  3.7078682169779568e-27  3.5886408852795514e-27  3.3269544196444294e-27  3.2924849465158191e-27  3.7249480062763252e-27  3.5941809527744208e-27  3.6039934637688169e-27  3.6509498790146911e-27  3.5845853691907854e-27  3.6044305866596477e-27  3.5909334204951574e-27  3.6145073581414139e-27  3.6107901666772073e-27  3.6090533861566299e-27  3.6079062100127308e-27  3.6173869032869912e-27  3.6153227725176000e-27  3.6116418689190809e-27  3.6147760927446129e-27  3.6165663589271707e-27  3.5331373609193963e-27  3.4877069066715996e-27  3.5362654595700500e-27  3.5446096353071415e-27  3.5562454249933119e-27  3.5638047008747792e-27  3.5559922212239137e-27  3.4681102702315756e-27  3.5011371123672130e-27  3.6783554014023436e-27  3.4763214622459713e-27  3.5836237649572161e-27  3.6057593396677128e-27  3.6377564856826501e-27  3.6084502040456197e-27  3.5692123400819825e-27  3.3783254572647555e-27  3.5511689951752481e-27  3.5960805823087202e-27  3.6258926806109419e-27  3.6083982184639211e-27  3.5985364273690889e-27  3.5990089827863014e-27  3.6421889276451209e-27  3.6026533686261164e-27  3.6136874763532094e-27  3.6132158203210820e-27  3.6166954865387907e-27  3.6163346192604139e-27  3.6185926151205252e-27  3.6159158728951256e-27  3.6164169934894405e-27  3.5616076731992687e-27  3.6285365678029080e-27  3.7168015216379538e-27  3.1814082120646164e-27  5.6356932913363938e-27  5.5793124721230973e-27  4.5703852226826552e-27  3.6409255271837192e-27  3.6476380320774369e-27  3.6127127291610623e-27  3.6959493499327514e-27  3.5264491870755918e-27  3.4396195946776201e-27  3.6661988694960506e-27  3.6295936627160219e-27  3.6153384010985171e-27  3.6125770702053216e-27  3.6129458389173167e-27  3.6175903223503367e-27  3.6103476746146934e-27  3.6147195176807423e-27  3.6169090680911522e-27  3.7600083134542251e-27  3.8193313464813460e-27  3.7687668403798457e-27  3.7258416885638786e-27  3.6906521046466203e-27  3.6106636729466681e-27  3.6185999309070192e-27  3.6133605309565234e-27  3.6148633419653566e-27  3.6135993807884552e-27  3.6109094731149226e-27  3.6160312081317053e-27  3.6163747192861294e-27  3.6167702142065049e-27  3.6158286370991200e-27  3.6152667503506054e-27  3.6168750344379427e-27  3.6170714462236410e-27  3.6168299541175845e-27  3.6154414758063062e-27  3.6171639318699503e-27  3.5984812187158433e-27  3.6163297951309634e-27  3.5765000057548460e-27  3.5711787821782874e-27  3.6237487694799708e-27  3.6687166855657437e-27  3.6600167698654666e-27  3.5846014656009796e-27  3.5881488847456046e-27  3.6229385649976212e-27  3.3342191784914886e-27  3.4722869491213035e-27  3.9091945331917550e-27  3.5773987436801530e-27  3.5466644154586925e-27  3.6462211694927852e-27  3.6206401910547451e-27  3.6445779061596508e-27  3.5996129571820072e-27  3.6031388025423768e-27  3.6160009077592842e-27  3.6020843293412758e-27  3.5332358858140145e-27  3.6235527771816851e-27  3.6401400539651980e-27  3.8191926068527996e-27  3.5965299475322782e-27  3.7919008663702422e-27  3.3572818191505748e-27  2.8742217137355623e-27  3.4514484315249457e-27  3.4687774985770925e-27  3.5425549028111138e-27  3.5976792359612289e-27  3.5462674808511172e-27  3.6431950105935083e-27  4.0180594144834189e-27  4.0455569031714452e-27  3.5397820660324249e-27  3.5999206702946572e-27  3.5833563716780968e-27  3.5666936204770571e-27  3.6221484768591190e-27  3.6682592074422313e-27  3.6061759120715087e-27  3.5726046416446216e-27  3.5745508117451685e-27  3.5723230594337198e-27  3.5756923721256149e-27  3.6344242912181329e-27  3.6085889023499456e-27  3.6282575626218832e-27  3.6180108353974251e-27  3.6168871661900537e-27  3.6165425201269195e-27  3.6161903890496722e-27  3.6166551181573971e-27  3.6164656709954291e-27  3.6158544859573706e-27  3.6103043106760304e-27  3.6074978958421880e-27  3.6139090563451429e-27  3.6119320279987735e-27  3.6152497778377015e-27  3.6174738206852672e-27  3.6170843619254924e-27  3.6018738417879416e-27  3.6099463280787824e-27  3.6080760356567970e-27  3.5947373155690037e-27  3.6224183468584199e-27  3.6173443950237743e-27  3.6229730428808978e-27  3.6125880720042470e-27  3.6126129006331402e-27  3.6248864349811681e-27  3.6092574685511212e-27  3.6095966580977429e-27  3.6188498363106803e-27  3.6114393359056621e-27  3.7196787217911076e-27  3.7640195832463118e-27  3.3880964686536186e-27  3.5454954488005592e-27  3.4470090206771994e-27  3.5743750055142390e-27  3.6165290902486783e-27  3.6159370309382260e-27  3.6145014050968920e-27  3.6175383477083738e-27  3.6175671463725021e-27  4.4292823534636945e-27  3.6084562173958459e-27  3.5998754699671445e-27  3.5974840371043735e-27  3.5938519979459622e-27  3.6275630983388477e-27  3.6044684227284632e-27  3.6032049341706648e-27  3.6157196441551999e-27  3.6283390865036688e-27  3.6003260145786509e-27  3.6034633549320107e-27  3.6154165518789538e-27  3.6177870881546249e-27  3.5672002694771994e-27  3.5643601788986587e-27  3.5712737017583894e-27  3.5586256470230745e-27  3.5719187366863984e-27  3.6255802481626689e-27  3.6219302670235251e-27  3.6217280600227779e-27  3.6168865555938696e-27  3.6078852958476498e-27  3.6209284345486541e-27  3.6092480466869529e-27  4.9022994284584390e-27  3.5971648679416144e-27  3.6101607907375486e-27  3.5999490057031465e-27  3.5966283256067179e-27  3.6222583653068088e-27  3.6189892547981973e-27  3.6246860018982905e-27  7.8532295696750637e-27  1.8754433755969520e-27  7.9170069750193041e-27  3.0567423462355212e-27  3.2231684721827398e-27  3.6507729946536198e-27  5.5179352086818533e-27  3.0229820455906076e-27  6.4573990995179996e-27  3.0604286898957132e-27  3.5696868450255870e-27  3.5727154228576915e-27  3.6370030964701051e-27  3.2869121266443993e-27  4.7452583630967100e-27  3.3269875617851747e-27  3.5819285953565786e-27  3.5689853305012602e-27  3.5798411892385957e-27  3.6295710790668577e-27  3.6134382070210554e-27  3.3868985280793185e-27  3.9333539765426671e-27  3.6173011689455433e-27  3.5967516476345470e-27  3.6173956893947098e-27  3.6260044032030707e-27  3.6219248615492281e-27  3.6132473970518183e-27  3.6163569558002723e-27  3.6146712724092984e-27  3.6127332248896186e-27  3.6162113211643310e-27  3.5931520165738540e-27  3.6209076544254866e-27  3.6229950183745842e-27  3.5980310013026549e-27  3.6431986233973842e-27  3.1827506610328363e-27  4.7217102260632483e-27  3.5714798259744243e-27  3.6136237541700803e-27  3.6031939773168700e-27  3.0206879015982401e-27  3.5008007788683314e-27  3.6338165510411133e-27  3.7496571597876797e-27  3.7560834196405052e-27  3.7916586318476453e-27  3.6279946566898127e-27  3.7464088570130124e-27  3.7894584577299789e-27  3.6159825849959350e-27  3.6171300809833171e-27  3.6186473350557712e-27  3.6166409879192141e-27  3.6135435735190593e-27  3.6179036221307962e-27  3.6169353320117931e-27  3.6143509725905667e-27  3.5765183120371503e-27  3.5997756498849728e-27  3.6792652092645487e-27  3.5647911517566567e-27  3.5796058276586695e-27  3.5912755929524196e-27  3.5419396586685519e-27  3.6011287647306735e-27  3.5933220747682534e-27  3.6015500134577394e-27  3.5891159909032258e-27  3.6252578022050208e-27  3.6150818488292891e-27  3.6177584183787671e-27  3.6053710840593442e-27  3.6061249449403435e-27  3.6128752572863434e-27  3.6158191761237407e-27  3.6153164521510432e-27  3.6160344719931460e-27  3.6145247416035354e-27  3.6108471050634860e-27  3.6116768577390880e-27  8.5207374532261919e-27  3.6284322227330297e-27  3.6085530394525451e-27  3.6175422218745672e-27  3.6186309300122981e-27  3.5997674369506184e-27  3.5891138785467091e-27  3.5926277543517344e-27  3.5975008212352081e-27  3.6172624972221776e-27  3.5949443378250434e-27  3.6047301140565532e-27  3.6053495391515165e-27  3.6485844725339798e-27  3.6191926150367240e-27  3.5743443295300648e-27  3.6168424301698148e-27  3.4748682960067277e-27  3.6662776679396500e-27  3.6620495934780419e-27  3.0162234024325261e-27  2.8377199452041454e-27  3.7124760452075864e-27  6.6313490293410033e-27  5.3776829637152116e-27  3.5943180210680988e-27  3.6027940276700001e-27  3.6147586226684329e-27  3.6097216395319328e-27  3.6098238937862464e-27  3.6179729962877986e-27  3.5938295528574040e-27  3.6004323073812959e-27  3.6036241616153007e-27  3.6221951746020571e-27  3.6221769904602796e-27  3.6159031971626127e-27  3.6163172001774077e-27  3.6137189594237658e-27  3.6144817357736173e-27  3.6085519025564130e-27  3.6151501190472908e-27  3.6120275757057039e-27  3.5638561082366151e-27  3.5227972044127550e-27  3.6541419354902217e-27  3.6498889304991185e-27  3.5864577536819217e-27  3.7761294814836454e-27  3.6256498027805029e-27  3.6128514935965258e-27  3.6141697812665324e-27  3.6158749802210030e-27  3.6169994227328181e-27  3.6670386955244802e-27  3.6241051957212813e-27  3.6170623076091407e-27  3.6117967803226365e-27  3.6109815349458548e-27  3.7224347444908528e-27  3.7863892797742964e-27  3.7492932906665596e-27  3.6148239043433969e-27  3.6170879596081079e-27  3.5706942931401532e-27  3.5861210930610718e-27  3.5932527345196405e-27  4.2283617405292548e-27  3.5431990313550070e-27  3.6050355461838771e-27  1.8073681681313014e-27  4.0174730480075070e-27  3.3175005091742697e-27  4.0974585520808002e-27  3.4094555405073821e-27  3.6159747329944356e-27  3.6197894358284990e-27  3.6167813783157359e-27  4.1767353184293826e-27  3.6238654992015836e-27  3.6730788252805013e-27  3.6134633392917953e-27  4.0521478124121623e-27  3.4612616911210028e-27  3.6086836130663115e-27  3.2911463743658617e-27  3.6003424764108545e-27  3.6030892062810647e-27  3.6056000586633556e-27  3.6632914420330278e-27  3.5615995749368894e-27  3.6150004632218625e-27  3.6146962366810447e-27  3.6141089768495747e-27  3.6106869128590241e-27  3.6161465486854139e-27  3.6188388568353276e-27  3.1870976333162635e-27  5.4836539195510537e-27  3.6215967083974275e-27  3.6096314395247924e-27  3.6164529565635192e-27  3.6173645261627304e-27  1.7795347337096677e-27  3.5777302297268133e-27  3.6566770439442390e-27  3.7100416170286812e-27  3.6631634286043029e-27  3.6175659309385073e-27  3.6179767499904760e-27  3.6172111824231247e-27  3.6178817477982409e-27  3.6189268586695594e-27  3.6171840778754517e-27  3.6175384854632639e-27  3.6151753872785392e-27  3.6167414079768673e-27  3.6173975394744900e-27  3.6175824169074755e-27  3.6179716277969281e-27  3.6166337976879914e-27  3.6179766127213957e-27  3.6175379263689369e-27  3.6151082500872549e-27  3.6211550667830387e-27  3.6173901869930839e-27  3.6176065051195901e-27  3.6176475334825188e-27  3.6182743305454966e-27  3.6178480320067438e-27  3.6200481790192051e-27  3.6168382113629890e-27  3.6159949504249016e-27  3.6171917537611087e-27  3.6177799014721123e-27  3.6197715696321391e-27  3.6195554912912034e-27  3.6179469658534302e-27  3.6149091570174270e-27  3.6176687149786269e-27  3.6183767524350406e-27  3.6177859072996253e-27  3.6195897845997784e-27  3.6184160554928183e-27  3.6175982521173708e-27  3.6179655060682788e-27  3.6173753659165345e-27  3.6152100547202267e-27  3.6183034998680125e-27  3.6178131813871753e-27  3.6196860185462069e-27  3.6195208901499665e-27  3.6187365639923340e-27  3.6215806293905692e-27  3.6169599021663655e-27  3.6151098664701041e-27  3.6190272252215609e-27  3.6176382572885355e-27  3.6190519642322901e-27  3.6176077143185309e-27  3.6142248953615653e-27  3.6213742277965827e-27  3.6175197311682336e-27  3.6186867669202544e-27  3.6182485584350261e-27  3.6181709154569472e-27  3.6147350358823927e-27  3.6211933193148800e-27  3.6187251344921474e-27  3.6187974078309541e-27  3.6177368993747181e-27  3.6185885037641522e-27  3.6180233495379905e-27  3.6203470649862498e-27  3.6149536691305839e-27  3.6182886191230046e-27  3.6139798365340363e-27  3.6243650020938352e-27  3.6187788757336101e-27  3.6171755068896716e-27  3.6216870650470586e-27  3.6177839627357471e-27  3.6204765137986189e-27  3.6172673361687473e-27  3.6182198554803817e-27  3.6171535815312174e-27  3.6175264779549443e-27  3.6147893659841408e-27  3.6201902931457397e-27  3.6166986847600485e-27  3.6206250235760315e-27  3.6172925038626163e-27  3.6178934289502979e-27  3.6147825908731777e-27  3.6210538038762653e-27  3.6189646111001926e-27  3.6146454749009544e-27  3.6177579328414540e-27  3.6147650220968858e-27  3.6214350775040456e-27  3.6173355151507320e-27  3.6176462953820979e-27  3.6178723167507282e-27  3.6202056109911709e-27  3.6155080122490364e-27  3.6167121915601045e-27  3.6215554583183521e-27  3.6128182675773019e-27  3.9392803816647777e-27  -5.8773241149023641e-28  4.1999392825031866e-27  1.6375577523644143e-27  4.4677736640377687e-27  3.5413992036472676e-27  3.4203987926792107e-27  3.6159841878001406e-27  3.6104508189977885e-27  3.6095387916777180e-27  3.6075229985337478e-27  3.6153570382757104e-27  3.6135243464814913e-27  3.6086677888762159e-27  3.6033265818015052e-27  3.6062519024788814e-27  3.6057141713731307e-27  3.6132741843416740e-27  3.6016040756187711e-27  3.6010433405854205e-27  3.6011897088553522e-27  3.6111218556356398e-27  3.6121151157690909e-27  3.6135068974936448e-27  3.6108266479241808e-27  3.6142749323378261e-27  3.5899465419877004e-27  3.5897312585928235e-27  3.5980635397411835e-27  3.5927310208471206e-27  3.5970709077332227e-27  3.6037996862696838e-27  3.5997880969752601e-27  3.5956555893156294e-27  3.6040862988208090e-27  3.5987900094059922e-27  3.6003026576129200e-27  3.5457224952556116e-27  3.5560415298074454e-27  3.5529257453022007e-27  3.5966790798814732e-27  3.5893593703479058e-27  3.5949690516195054e-27  3.5827075132744760e-27  3.5869597349283515e-27  3.5775254964694549e-27  3.5816954818215992e-27  3.4883055534348319e-27  3.8435905612168484e-27  3.5357327232476660e-27  3.5319409665732882e-27  3.6160060012237781e-27  3.5595462092177273e-27  3.5810967787600022e-27  3.5436561564032832e-27  3.5912674463030323e-27  3.5754188435817740e-27  3.5790543500712177e-27  3.5715663857494373e-27  3.5760852831170500e-27  3.5853670331850708e-27  3.5727368920636235e-27  3.5645972070474808e-27  3.5527216099419113e-27  3.6082546976363655e-27  3.6080818563055502e-27  3.6059353787327249e-27  3.6036133232393778e-27  3.6065997938260193e-27  3.6092369814765724e-27  3.6092878383130040e-27  3.6066705614781277e-27  3.6052205993377019e-27  3.6083237246074968e-27  3.6045862174898392e-27  3.6474849221316580e-27  3.5233892292581184e-27  3.6061394378780688e-27  3.5873501217798380e-27  3.6151412177513109e-27  3.6075809257