<?xml version="1.0"?>
<VTKFile type="UnstructuredGrid"  version="0.1"  >
<UnstructuredGrid>
<Piece  NumberOfPoints="5911" NumberOfCells="27301">
<Points>
<DataArray  type="Float64"  NumberOfComponents="3"  format="ascii">-44.707341 -27.664765 -10.627894  -43.4075455 -26.998254 -10.59420075  -43.939212 -26.4658265 -10.5949615  -43.938485 -26.9984425 -10.0630725  -43.169629 -26.33212 -9.498251  -42.6386895 -26.3319315 -10.02937925  -43.170356 -25.799504 -10.03014  -43.171083 -25.266888 -10.562029  -42.6394165 -25.7993155 -10.56126825  -42.10775 -26.331743 -10.5605075  -44.1764015 -27.6645765 -11.15902225  -43.64546199999999 -27.664388 -11.6901505  -42.876606 -26.9980655 -11.125329  -43.4082725 -26.465638 -11.12608975  -44.708068 -27.132149 -11.159783  -44.70879499999999 -26.599533 -11.691672  -43.939939 -25.9332105 -11.1268505  -44.17712849999999 -27.1319605 -11.69091125  -44.710249 -25.534301 -12.75545  -43.94066599999999 -25.4005945 -11.6587395  -44.1785825 -26.0667285 -12.75468925  -44.70952199999999 -26.066917 -12.223561  -43.40899949999999 -25.933022 -11.65797875  -44.17785549999999 -26.5993445 -12.22280025  -43.646916 -26.599156 -12.7539285  -42.583583 -27.664011 -12.752407  -42.34566649999999 -26.997877 -11.65645725  -42.87733299999999 -26.4654495 -11.657218  -43.11452249999999 -27.6641995 -12.22127875  -43.1152495 -27.1315835 -12.75316775  -43.64618899999999 -27.131772 -12.2220395  -41.631917 -24.999475 -8.368608  -41.8698335 -25.665609 -9.464557750000001  -42.4015 -25.1331815 -9.465318499999999  -42.400773 -25.6657975 -8.933429499999999  -48.948592 -31.923619 2.127788  -48.17007775 -30.7021315 2.12779  -48.41646625 -31.39196125 3.1915715  -48.948573 -31.391689 2.659737  -48.948554 -30.859759 3.191686  -46.3289 -31.6086125 -1.0624875  -46.576702 -32.29821925 -2.12507875  -47.10805775 -32.29808975 -1.5938525  -46.5760445 -32.83022425 -1.59373125  -47.8872155 -32.987567 -2.1252175  -47.35585975 -32.9876965 -2.65644375  -47.35520225 -33.5197015 -2.12509625  -46.824504 -32.987826 -3.18767  -46.8238465 -33.519831 -2.6563225  -48.951242 -31.923298 -2.12546  -47.6407285 -31.23395025 -2.12532125  -48.17208425 -31.23382075 -1.594095  -47.64007100000001 -31.76595525 -1.59397375  -46.32955750000001 -31.0766075 -1.593835  -46.86091325 -31.076478 -1.06260875  -47.3929265 -30.5443435 -1.06273  -46.86157075 -30.544473 -1.59395625  -46.330215 -30.5446025 -2.1251825  -48.41988625 -31.9234275 -2.65668625  -47.10871525 -31.76608475 -2.1252  -47.10937275000001 -31.23407975 -2.6565475  -47.8885305 -31.923557 -3.1879125  -48.41922875 -32.4554325 -2.12533875  -47.887873 -32.455562 -2.656565  -46.825819 -31.923816 -4.250365  -47.35717475 -31.9236865 -3.71913875  -46.578017 -31.23420925 -3.18777375  -46.5773595 -31.76621425 -2.65642625  -47.35651725 -32.4556915 -3.18779125  -46.82516150000001 -32.455821 -3.719017500000001  -45.834611 -29.165389 0  -46.082413 -29.85499575 -1.06259125  -46.61376875000001 -29.85486625 -0.531365  -46.0817555 -30.38700075 -0.53124375  -48.95359 -29.794882 -4.251528  -48.174214 -29.11642 -3.709366  -48.69601425 -29.11533975 -3.188646  -48.17384525 -29.63750875 -3.188646  -47.3941005 -29.4801355 -2.125764  -47.39446925 -28.95904675 -2.646484  -47.9162695 -28.9579665 -2.125764  -48.4384385 -28.4357975 -2.125764  -47.91663825000001 -28.43687775 -2.646484  -47.394838 -28.437958 -3.167204  -45.83497975 -28.64430025 -0.52072  -46.35678 -28.64322 0  -46.61435575 -29.32276225 -1.062882  -46.6147245 -28.8016735 -1.583602  -47.13652475000001 -28.80059325 -1.062882  -46.87894900000001 -28.121051 0  -46.35714875000001 -28.12213125 -0.52072  -45.8353485 -28.1232115 -1.04144  -47.923287 -27.076713 0  -47.40148675 -27.07779325 -0.52072  -47.401118 -27.598882 0  -47.65869375 -28.27842425 -1.062882  -47.1368935 -28.2795045 -1.583602  -46.87931775000001 -27.59996225 -0.52072  -46.87968650000001 -27.0788735 -1.04144  -48.18086275 -27.75625525 -1.062882  -47.6590625 -27.7573355 -1.583602  -45.836086 -27.081034 -2.08288  -46.35788625000001 -27.07995375 -1.56216  -46.3575175 -27.6010425 -1.04144  -46.61509325 -28.28058475 -2.104322  -47.13726225000001 -27.75841575 -2.104322  -45.83571725 -27.60212275 -1.56216  -46.615462 -27.759496 -2.625042  -48.955862 -27.666013 -6.378125  -48.69795525000001 -26.4771885 -5.824856499999999  -48.698285 -26.998084 -5.303630999999999  -49.22991625 -26.46597725 -5.3041065  -49.50397049999999 -25.2659415 -4.230088  -48.9720095 -25.27715275 -4.750838  -48.97233925 -25.79804825 -4.2296125  -48.440708 -26.330155 -4.229137  -48.44037825 -25.8092595 -4.7503625  -48.4400485 -25.288364 -5.271587999999999  -47.925554 -24.994297 -2.080149  -48.18280125 -25.1413305 -3.6758685  -48.183131 -25.662226 -3.154643  -48.71476224999999 -25.13011925 -3.1551185  -51.079095 -29.794869 -2.126036  -50.2905865 -28.583209 -2.12620425  -50.290143 -29.11533 -1.594527  -49.75876675000001 -29.11533325 -2.1259  -48.97025825 -27.90367325 -2.12606825  -48.96981475 -28.43579425 -1.594391  -49.50119100000001 -28.435791 -1.063018  -49.5016345 -27.90367 -1.59469525  -49.502078 -27.371549 -2.1263725  -51.0795385 -29.262748 -2.65771325  -50.54816225 -29.26275125 -3.18908625  -50.0172295 -28.7306335 -4.252136500000001  -50.54860575 -28.73063025 -3.7207635  -49.75965375 -28.05109125 -3.189254500000001  -50.29103 -28.051088 -2.6578815  -51.079982 -28.730627 -3.1893905  -50.54771875 -29.79487225 -2.657409  -49.75921025 -28.58321225 -2.65757725  -49.2273905 -29.1153365 -2.657273  -50.0163425 -29.7948755 -3.188782  -50.016786 -29.2627545 -3.72045925  -49.227834 -28.5832155 -3.18895025  -49.48496625 -29.79487875 -3.720155  -49.48540975 -29.26275775 -4.251832250000001  -51.080869 -27.666385 -4.252745  -51.0804255 -28.198506 -3.72106775  -50.2914735 -27.518967 -3.18955875  -50.54904925 -28.19850925 -4.25244075  -48.7126825 -27.224131 -1.06318625  -48.712239 -27.756252 -0.531509  -42.586667 -25.532975 -14.880358  -41.82276425 -25.39975575 -13.77748  -42.34449725 -24.88085725 -13.7746455  -42.34372625 -25.41361625 -13.24265775  -42.1007855 -25.2942575 -11.6049575  -41.5798235 -25.280397 -12.13977975  -42.1015565 -24.7614985 -12.13694525  -42.1023275 -24.2287395 -12.668933  -41.5805945 -24.747638 -12.6717675  -41.0588615 -25.2665365 -12.674602  -42.585896 -26.065734 -14.34837025  -42.585125 -26.598493 -13.8163825  -41.82199325 -25.93251475 -13.24549225  -42.34295525 -25.94637525 -12.71067  -41.82122225 -26.46527375 -12.7135045  -42.34218425 -26.47913425 -12.17868225  -41.0573195 -26.3320545 -11.6106265  -39.531056 -25.000098 -10.468846  -40.29495875 -25.13331725 -11.571724  -40.81592075 -25.14717775 -11.03690175  -42.584354 -27.131252 -13.28439475  -41.617988 -22.924504 -10.457508  -41.33842475 -24.09552025 -11.566055  -41.85938675 -24.10938075 -11.03123275  -40.574522 -23.962301 -10.463177  -41.86015775 -23.57662175 -11.5632205  -46.05689875 -31.2336815 -3.70941975  -46.05923425 -31.752992 -3.18777375  -45.80909675 -30.54407475 -2.6468285  -45.81143225 -31.06338525 -2.1251825  -45.2926495 -31.582168 -2.1251825  -45.290314 -31.0628575 -2.6468285  -45.2879785 -30.543547 -3.1684745  -44.7923745 -29.1643335 -1.043292  -44.27359175 -29.68311625 -1.043292  -45.042512 -30.37325075 -1.58423725  -44.27592725 -30.20242675 -0.5216460000000001  -44.52372925 -30.8920335 -1.58423725  -44.52606475 -31.411344 -1.06259125  -43.754809 -30.201899 -1.043292  -45.56363025 -30.3737785 -1.06259125  -45.31349275 -29.16486125 -0.5216460000000001  -45.56129475 -29.854468 -1.58423725  -43.750138 -29.163278 -2.086584  -43.7524735 -29.6825885 -1.564938  -44.52139375 -30.372723 -2.10588325  -44.27125625 -29.16380575 -1.564938  -45.0401765 -29.85394025 -2.10588325  -44.51905825 -29.8534125 -2.62752925  -40.447373 -34.054804 -8.497823  -40.224992 -32.83013725 -7.9448705  -38.960555 -32.643369 -7.3960755  -40.0087605 -32.647081 -6.344158500000001  -39.570148 -31.239358 -4.190494  -39.7863795 -31.42241425 -5.791206000000001  -38.5219425 -31.235646 -5.242411000000001  -37.473737 -31.231934 -6.294328  -38.738174 -31.41870225 -6.843123  -40.002611 -31.6054705 -7.391918  -39.5639985 -30.1977475 -5.2382535  -38.515793 -30.1940355 -6.2901705  -39.557849 -29.156137 -6.286013  -39.78023 -30.38080375 -6.8389655  -42.575943 -31.924835 -8.499222  -41.82449425 -31.75346575 -7.42204  -41.289277 -31.76515275 -7.94557  -41.066896 -30.540486 -7.3926175  -40.31544725000001 -30.36911675 -6.3154355  -40.53782825 -31.5937835 -6.868388  -41.07304550000001 -31.5820965 -6.344858  -42.0438005 -32.45732725 -8.49887225  -41.29235175 -32.28595799999999 -7.42169025  -40.7571345 -32.297645 -7.94522025  -41.511658 -32.9898195 -8.4985225  -40.76020925 -32.81845025 -7.4213405  -40.32159675 -31.41072725 -5.267676  -40.9795155 -33.52231175 -8.49817275  -42.34557700000001 -31.2336125 -7.4208105  -40.83653 -29.8492635 -6.314206  -41.59412825 -31.06224325 -6.3436285  -42.115211 -30.54239 -6.342399  -40.83960475000001 -30.37006875 -5.79032625  -41.36376225000001 -30.37102075 -5.265217  -40.088156 -30.1986995 -4.71314425  -40.6123135 -30.1996515 -4.188035  -41.654479 -29.159945 -4.185576  -41.1303215 -29.158993 -4.71068525  -40.606164 -29.158041 -5.2357945  -40.0820065 -29.157089 -5.76090375  -41.884845 -29.8511675 -5.263987500000001  -41.3606875 -29.8502155 -5.789096750000001  -42.342748 -30.71322525 -7.94402675  -40.833701 -29.32887625 -6.837422249999999  -42.112382 -30.02200275 -6.86561525  -42.10955300000001 -29.5016155 -7.3888315  -41.65165 -28.63955775 -4.70879225  -41.88201600000001 -29.33078025 -5.78720375  -41.1274925 -28.63860575 -5.2339015  -41.35785850000001 -29.32982825 -6.312313  -41.879187 -28.810393 -6.310420000000001  -41.648821 -28.1191705 -5.2320085  -40.600506 -28.1172665 -6.282227  -41.643163 -27.078396 -6.278441  -41.876358 -28.29000575 -6.83363625  -41.1246635 -28.1182185 -5.75711775  -41.645992 -27.59878325 -5.75522475  -50.81065175000001 -26.99978875 -3.18955875  -50.29204025 -26.998363 -3.709596  -50.02125625 -26.85237075 -2.1263725  -49.50264475 -26.850945 -2.64640975  -49.5032115 -26.
[...]
<PointData  Scalars="c_HbCO2"> 
<DataArray  type="Float64"  Name="c_HbCO2"  format="ascii">3.6941250717828833e-27  3.8178912466192651e-27  3.8589520420234947e-27  3.8305876769293697e-27  3.9000666641432612e-27  3.8570041980446343e-27  3.9180642982449699e-27  3.9409615897858792e-27  3.8852869016574434e-27  3.8302118222398405e-27  3.6666706639010033e-27  3.6758091539759960e-27  3.7925888769788765e-27  3.8206065179933660e-27  3.6940611518822056e-27  3.7031540279099194e-27  3.8678718042798606e-27  3.6785132632909118e-27  3.7134988128046757e-27  3.8846478213825620e-27  3.6934598117633097e-27  3.6935857743671348e-27  3.8534048320136778e-27  3.6883402539587577e-27  3.6843851088896214e-27  3.6735285355081787e-27  3.7726353161904734e-27  3.7968795316253101e-27  3.6613688012677307e-27  3.6666437030693744e-27  3.6732880185970304e-27  3.6849801238564588e-27  3.8031799494602869e-27  3.8489304950270642e-27  3.8261604769413352e-27  3.6846844496378253e-27  3.8545317796776829e-27  3.6710343300487414e-27  3.6847739287686269e-27  3.7036620022257988e-27  3.8182086227628786e-27  3.7607610823746661e-27  3.7552265468390179e-27  3.7247470168674694e-27  3.6633048622835140e-27  3.6565167227440526e-27  3.6584893432876811e-27  3.6620057421819552e-27  3.6478918779225849e-27  3.6791770242998912e-27  3.8316578880441684e-27  3.7994169554210502e-27  3.7705038399411350e-27  3.8242262227318236e-27  3.8492077650468456e-27  3.9103218869195187e-27  3.8889899590823356e-27  3.8572832708628343e-27  3.6754603908514288e-27  3.7988947541486802e-27  3.7870974354134233e-27  3.6810535946304449e-27  3.6745318576715268e-27  3.6613268882412635e-27  3.6713462397616503e-27  3.6703970508425792e-27  3.7910265806588203e-27  3.7678285306433060e-27  3.6584504859750395e-27  3.6579870210606868e-27  3.6957066089287091e-27  3.8871464915496232e-27  3.8435854610081982e-27  3.8233778590899321e-27  3.7196632519091749e-27  3.9475553775733592e-27  3.9931220041778891e-27  3.9096778594409987e-27  3.9735098867049393e-27  4.0026120605566986e-27  4.0828863396166289e-27  4.1315140504765065e-27  4.0936640151000155e-27  4.0568029097882715e-27  3.7201529685227905e-27  3.6268225788251582e-27  3.9616589334544549e-27  3.8715024921360590e-27  3.9715479666260539e-27  3.7780506167655580e-27  3.7604471117390295e-27  3.7047454312012456e-27  3.9459397338616021e-27  3.7934864944188321e-27  3.6758837625613886e-27  4.0484936261668398e-27  4.0135378153296986e-27  3.7855922533178680e-27  3.7645075443864658e-27  4.1122675161792096e-27  3.9586141738973655e-27  3.7195460257504969e-27  3.7265671505314133e-27  3.6828695078921658e-27  3.9300735763564647e-27  4.0109578915801896e-27  3.7199574216092870e-27  3.9374940265153951e-27  3.7536572505400554e-27  4.2036666608664382e-27  4.1801836071968907e-27  4.2249250554069768e-27  4.8188838516543221e-27  4.7275037340495318e-27  4.7183519099462085e-27  4.3919027091994095e-27  4.5204291234379309e-27  4.5723587413601525e-27  4.1304988260329989e-27  4.4165312571475538e-27  4.1673113279410257e-27  4.0307162765515851e-27  3.7210905302644285e-27  4.0673914123607724e-27  3.9431808565644862e-27  4.0140598827086481e-27  4.2876302502269731e-27  4.2280930335976061e-27  4.2325811255628416e-27  4.4322576835799127e-27  4.3678139075310978e-27  3.7593266662841898e-27  3.7029987710317166e-27  3.7285631813267711e-27  3.7828462954701146e-27  4.1351049746500444e-27  4.2080299517014446e-27  3.7347771629325056e-27  3.7374210568137484e-27  4.0452035395624742e-27  3.9854086946448783e-27  3.7251229554777838e-27  3.7707443722939392e-27  4.0133421028381322e-27  3.7304574543576953e-27  3.7301095861388227e-27  3.7711343291019022e-27  3.7920127015664287e-27  4.1539374303085601e-27  3.8158498057903045e-27  4.1843476738778885e-27  4.0495434967966427e-27  3.6924544313002781e-27  3.7796827827257031e-27  3.8058912454523036e-27  3.7902205113982963e-27  3.8687181092676374e-27  3.8287086092417938e-27  3.8767541707165580e-27  3.8898958595114618e-27  3.8404361684528135e-27  3.8011845949441688e-27  3.6828720819215203e-27  3.6667006553181524e-27  3.7608936854717351e-27  3.7899416161617575e-27  3.7514646219503206e-27  3.7821283738589362e-27  3.7868444527544436e-27  3.6652974651977491e-27  3.7342719044111339e-27  3.7719231841898245e-27  3.6577819835148356e-27  3.7058939341985187e-27  3.8077381333391622e-27  3.8356083984998572e-27  3.6657549298892849e-27  3.8511451323984298e-27  3.7643003675981479e-27  3.7629289489470273e-27  3.8415659820229184e-27  3.8155175757736914e-27  3.7775159292332765e-27  3.7955949082965529e-27  3.8211704514061768e-27  3.6367000582702603e-27  3.6287643621308902e-27  3.8519426494509181e-27  3.6624145393748250e-27  3.7380044602729308e-27  3.7992547082634821e-27  3.6162115395062559e-27  3.8683136076027477e-27  3.7411352715792755e-27  3.7687748265920430e-27  3.6573586297788064e-27  3.6860130386422473e-27  3.7664676209908096e-27  3.6930654065301033e-27  3.7821122059829256e-27  3.7795130010105783e-27  3.6324126331174967e-27  3.6523328384819921e-27  3.6544191172527809e-27  3.6651069343415569e-27  3.6340071308442897e-27  3.6585374073209698e-27  3.6313797968335850e-27  3.6266704985908967e-27  3.6500546781382517e-27  3.6681340995688406e-27  3.6372642980563042e-27  3.6295453398051427e-27  3.6431040419781598e-27  3.6586058540242983e-27  3.6465821339097972e-27  3.6807704554603561e-27  3.6656661701602727e-27  3.7050964965452325e-27  3.6777649777524962e-27  3.6824000991350184e-27  3.6905001751569170e-27  3.6331738712037568e-27  3.6661294390230431e-27  3.6567493888106164e-27  3.6320665418238229e-27  3.6551672863190406e-27  3.6616431405707701e-27  3.6288136983499582e-27  3.6963796646203295e-27  3.6878309041998434e-27  3.7060720194957805e-27  3.7225597550533672e-27  3.6768826829748548e-27  3.6915688504699117e-27  3.6364831896470784e-27  3.6405966030405815e-27  3.6500229682206729e-27  3.6442193177508796e-27  3.6430606459848327e-27  3.6378711591511127e-27  3.7085801097441715e-27  3.6982136754121528e-27  3.7016194393705374e-27  3.6980421854674701e-27  3.7406929858706666e-27  3.7514684301026834e-27  3.6474676081804771e-27  3.7193169465491178e-27  3.6550289191199235e-27  3.7083164074533553e-27  3.7293246291601724e-27  3.6598086253103868e-27  3.6502768714643900e-27  3.6673740767396348e-27  3.7347577467820535e-27  3.6485544693089835e-27  3.6605317599118930e-27  4.3261193780079412e-27  4.3258298496234791e-27  4.8859488842698579e-27  4.4510080135056280e-27  4.6012140141249288e-27  4.8288476344483192e-27  4.6725490899311863e-27  3.6121958920839326e-27  9.1718524688274806e-27  4.5403691167903276e-27  4.8425046135834912e-27  4.0299542283671662e-27  4.1922371415860177e-27  3.4893519832575219e-27  4.1532789624683923e-27  4.5684202574377417e-27  8.7620363817054729e-28  4.4474974445758167e-27  4.4580788926418637e-27  3.9024141741490600e-27  5.6546409531522998e-27  3.7758269540742049e-27  3.5400898659138231e-27  3.7084453925702816e-27  4.0611377819002919e-27  4.1574096877691869e-27  3.6564393852012615e-27  4.4583409294834050e-27  4.0075416169013665e-27  3.8703339880221891e-27  3.8505676442651396e-27  3.9032845990433226e-27  3.9846814079400880e-27  3.9373988313724764e-27  3.9170729811554068e-27  3.6790790629372296e-27  3.8079002344714540e-27  3.6612503033464828e-27  3.6921631625267896e-27  3.6905369404415550e-27  3.8435508308330809e-27  3.8331945860836862e-27  3.6772242006289345e-27  3.6693615857277886e-27  3.8886758961623619e-27  3.9695122171107160e-27  3.7867628565065504e-27  3.9163899562231417e-27  3.9138614856815311e-27  4.1003273829885913e-27  4.2274214487611298e-27  3.8231813576805158e-27  3.7318563640799906e-27  4.4618022904911940e-27  3.7445661262329255e-27  4.0617605497720964e-27  3.8237355878309177e-27  3.9902289455265191e-27  3.7183492145498725e-27  3.9960500522124776e-27  3.8303194818507259e-27  3.9124558441688950e-27  4.1834244201787310e-27  4.2351590487688214e-27  4.0610735420957990e-27  3.8684604711507511e-27  4.4115424883051134e-27  4.1290616571973731e-27  4.5097471989744762e-27  3.8044629048396563e-27  3.6674639599085235e-27  3.7026288174955028e-27  3.7321174257193715e-27  3.7257540091486303e-27  3.7711351451191313e-27  3.7692963554833820e-27  3.6881913963214954e-27  3.6590094965718380e-27  3.7415115366171133e-27  3.7529656371950043e-27  3.6996587180260915e-27  3.6574252566627347e-27  3.6750858186005102e-27  3.8098688018577247e-27  3.6015646630747378e-27  3.7727506713015201e-27  3.6814402583227828e-27  3.7595570416283781e-27  3.7190236328372277e-27  3.7771064609142009e-27  3.7240911503004797e-27  3.9933525266808435e-27  3.9573554638773000e-27  4.0313109521673934e-27  4.2629959855721067e-27  4.0977504706055503e-27  4.1987706554624146e-27  4.1382920634490241e-27  4.0615032541291576e-27  4.1426064336007818e-27  3.7354036824131762e-27  3.7419462171364480e-27  4.0142930398495482e-27  4.0850645855289975e-27  3.7600492201166523e-27  4.0457996574596363e-27  4.1516664184346748e-27  4.0996411836294761e-27  4.3214101615505213e-27  4.3791680390734620e-27  4.2844857231741635e-27  3.7443622046535194e-27  3.8493885701040926e-27  3.7337570802682382e-27  4.1159946801057247e-27  4.1818342217077145e-27  4.0444532113641071e-27  4.0689660330145199e-27  3.7750446178573471e-27  4.2411826885733669e-27  3.7261327872701031e-27  3.7050607446835713e-27  3.9787576344148954e-27  4.0156308775572703e-27  3.9368742604368754e-27  3.6433942305048647e-27  3.6408385695666530e-27  3.7055603489125356e-27  3.6366623204348753e-27  3.6547124610878308e-27  3.7148078656207821e-27  3.6478094678678454e-27  3.7212946931173001e-27  3.7527220623166843e-27  3.6483766487691222e-27  3.7605256328041234e-27  3.7497672828713959e-27  3.7970457636372816e-27  3.7803864150069746e-27  3.7666394593655192e-27  3.7783485862114359e-27  3.6576617290443315e-27  3.6642662465171754e-27  3.7477462082984550e-27  3.7360229758765074e-27  3.6513677669120454e-27  3.6523875430430405e-27  3.6544561056473774e-27  3.7362151057671922e-27  3.7221865248289198e-27  3.6546535591711279e-27  3.6458963575076131e-27  3.6480538021728170e-27  3.7562718566308474e-27  3.7562536929223675e-27  3.6231037270324527e-27  3.6344757520636919e-27  3.6392729470289289e-27  3.6307119797879151e-27  3.6182899772096265e-27  3.6222479156861811e-27  3.6201162753553008e-27  3.6226155186810333e-27  3.8634219603362165e-27  4.5600819969348281e-27  4.6396044662504569e-27  4.4440488114331712e-27  4.7533411473885664e-27  5.0333764259102907e-27  4.7915525614193802e-27  5.0842987542820113e-27  5.2910864400590025e-27  4.9302766228227194e-27  5.0450957811553660e-27  3.7452526458777259e-27  3.8588254415957295e-27  4.4828034045670517e-27  4.5214359117968817e-27  4.4441750300695347e-27  4.0211064190625555e-27  3.9853422059590110e-27  4.1551676424228329e-27  4.6942748814311857e-27  4.5209459518020001e-27  3.7549560783742573e-27  3.8179827602701782e-27  4.3147747427397358e-27  4.3378766470170961e-27  3.8607770345237880e-27  3.7306697396755262e-27  3.7555637102397566e-27  3.9491231869495539e-27  3.7410682824638416e-27  3.9008123078172073e-27  4.4099312291946683e-27  4.6527605188117586e-27  4.4365361845481002e-27  3.6480316123351687e-27  3.7104416670184165e-27  3.7586932568868908e-27  3.7492365570169450e-27  3.6510824712310855e-27  3.6690346063676750e-27  3.6793929581752982e-27  3.6391381333079406e-27  3.6420367103695999e-27  3.6299346605206867e-27  3.6419314867041552e-27  3.6444848608419762e-27  3.6481377803329805e-27  3.6237660338722725e-27  3.6479024964192604e-27  3.6461633416012909e-27  3.6513540244994417e-27  3.6613255474627312e-27  3.6667986038730805e-27  3.6253752218395788e-27  3.6490323075035112e-27  3.6444070753313732e-27  3.6273957321891688e-27  3.6372176545516656e-27  3.6599693713555467e-27  3.6516054220125186e-27  3.6770461530376600e-27  3.6573760747128977e-27  3.6445719805607171e-27  3.6280781779376251e-27  3.6321866741335806e-27  3.6508981788442385e-27  3.6253073099761749e-27  3.6269293874860382e-27  3.6377231347055894e-27  3.6589322098567733e-27  3.6703078411050067e-27  3.6248601957136111e-27  3.6253359443382386e-27  3.6320250640774841e-27  4.0342749505319303e-27  4.0364403112289473e-27  3.9998958071298293e-27  4.0415488501203441e-27  4.1587317237568320e-27  4.0855079608348018e-27  4.2264296222337120e-27  4.2357153124879973e-27  4.0096781362126392e-27  4.1113000424059433e-27  3.8208512957780004e-27  3.9451971191654193e-27  3.8150703247419997e-27  3.9365772637188477e-27  3.7633349163423908e-27  3.6986568790063278e-27  3.8361355952118827e-27  3.8938324916882897e-27  3.6995719145607350e-27  3.7615941714091807e-27  3.9126429092335635e-27  3.8305377308351963e-27  3.7477148699848515e-27  4.1673931854177235e-27  4.0875514502330992e-27  3.6475895048355864e-27  3.7525126330665649e-27  3.6440470637554070e-27  3.6909053476584294e-27  3.7128299453207845e-27  3.6849561768826350e-27  3.6964545393188764e-27  3.7169957010540338e-27  3.6707089887073617e-27  3.6920905841371378e-27  3.6687530307108452e-27  3.7131478769523428e-27  3.7137451817467385e-27  3.6563505317233204e-27  3.7334717321609843e-27  3.7282563725390761e-27  3.6864947097859830e-27  3.7116520151469862e-27  3.6755423610186625e-27  3.7127631652501338e-27  3.6918575318316352e-27  3.7631370599338649e-27  3.7180861502998150e-27  3.8269040329955630e-27  3.6948539776806173e-27  3.6945404334213248e-27  3.6927730873474766e-27  3.7565065726787539e-27  3.6487310790868661e-27  3.7154373272048958e-27  3.6688415120749216e-27  3.7313022135486042e-27  3.6903942845782422e-27  3.7699160762111983e-27  3.6721435156890633e-27  3.7252117314454634e-27  3.6968105380109027e-27  3.7426109182192930e-27  3.7305009177950294e-27  3.8369635639384912e-27  3.9171020048602072e-27  4.0456787939121160e-27  3.9543362917852432e-27  3.9402873403357469e-27  3.9282361142363940e-27  4.0973854039255633e-27  4.0615339800248399e-27  3.8943393356733064e-27  4.1096365394339269e-27  3.9522972258044668e-27  4.0406100056142939e-27  4.0245220149644422e-27  3.9497034748529133e-27  4.0882800986077107e-27  3.7665696484578045e-27  3.7259216458276753e-27  3.6946047679925630e-27  3.9461442749241469e-27  3.9039124903495239e-27  3.8917161087760098e-27  3.7088918972833672e-27  3.7375535820568430e-27  3.7351210728704264e-27  4.0190096187465886e-27  3.9582348542846180e-27  3.6933853758017298e-27  3.6850309834963669e-27  3.8528988220787363e-27  3.6902615939079654e-27  3.6799006953570334e-27  3.6700438602550586e-27  3.7052889958751377e-27  3.7150109539579454e-27  3.8727232005988109e-27  3.9386420322202150e-27  4.2270469752747938e-27  5.2067210911813732e-27  5.1482194994827952e-27  5.3145595288884801e-27  1.3803161445692228e-27  3.2471219043379647e-27  4.3320873228469641e-27  4.0859027878274333e-27  4.0414009226484391e-27  3.9990717213228523e-27  4.0299067700943315e-27  4.1188686854679024e-27  4.0540779651663067e-27  4.1587464167985044e-27  4.2304879142857697e-27  3.7432249554499235e-27  3.9740710589769271e-27  3.7320172888220914e-27  3.9908323955335708e-27  3.7161392634242178e-27  3.7140553003535098e-27  3.9087629465743567e-27  3.7348432330816965e-27  3.6929864352898552e-27  3.7216348941568774e-27  3.9344653195940862e-27  3.8857926732840758e-27  3.6947683478833824e-27  3.7137402289867496e-27  3.9249955393866491e-27  4.0522555539471283e-27  3.9906863840366991e-27  3.7940952262735505e-27  4.1677950688945486e-27  4.2049784707095443e-27  4.1010292647601831e-27  4.1519229932967393e-27  4.2308125060222961e-27  4.2640214383539269e-27  4.3961537046419700e-27  4.3356775461547325e-27  4.3163385235001166e-27  3.7652104631591035e-27  4.1050877821670390e-27  4.0297048231721679e-27  3.7489916277344358e-27  4.0052640362777579e-27  3.9644024821588768e-27  4.2072880700697128e-27  4.1337283660367334e-27  3.7197265726037532e-27  4.0989143201544631e-27  3.7511319417467281e-27  4.0438454339996967e-27  4.0656333399034724e-27  3.7633869341024580e-27  4.1065683968439491e-27  3.7982483098300569e-27  4.1447520490497264e-27  3.8006911788057016e-27  4.0880886879831936e-27  4.1622647120837135e-27  3.7711844483620708e-27  3.7634055186090383e-27  3.7764929579665621e-27  4.1399969401539762e-27  4.1185628297869835e-27  4.2664123739013575e-27  4.0552481172500485e-27  3.7678484534106760e-27  3.7441115014589273e-27  3.7351801471615879e-27  3.7562257826911750e-27  3.8576494535902797e-27  3.6706823505017875e-27  3.8140554481753615e-27  3.7904721313920742e-27  3.8281633075120775e-27  3.6599105142105431e-27  3.6717083303512202e-27  3.7747288599911951e-27  3.6779703718621315e-27  3.6630910269660900e-27  3.6371253269383434e-27  3.6921683882962391e-27  3.6323605708948744e-27  3.6509936166813531e-27  3.6641217053205827e-27  3.7266329484688792e-27  3.6944669993988493e-27  3.6669088281691784e-27  3.6561743632808558e-27  3.6719351370453526e-27  3.7571876674079188e-27  3.6996352490589044e-27  3.6398139270600261e-27  3.6883135842932906e-27  3.7056877348762869e-27  3.6573363216183010e-27  3.6798888238790503e-27  3.7159904862894400e-27  3.6743905005260897e-27  3.7219945914131417e-27  3.8510876963231666e-27  3.8233789265966571e-27  3.8194140364238769e-27  3.9212668205708237e-27  3.9063343340697980e-27  3.8714092385425979e-27  3.8602242846615065e-27  3.8170133138826112e-27  3.7763200317088434e-27  3.7022931345973418e-27  3.6404703027636385e-27  3.6374856073817223e-27  3.6326477098743588e-27  4.2009276016522272e-27  4.2619868921989388e-27  4.9083011987174535e-27  4.5597220463231156e-27  3.8510147296571101e-27  4.2463868440252613e-27  4.2229151053723065e-27  3.7654666708518807e-27  3.8002206249624672e-27  3.6221240731194110e-27  3.6408766644563578e-27  3.6228088790614265e-27  3.6237951950536778e-27  3.6463893494132341e-27  3.6214967556173884e-27  3.6443873538514572e-27  3.6726913655830288e-27  3.6896589846479453e-27  3.6352256492076577e-27  3.6293381591643387e-27  3.6287493365764369e-27  3.6294329365586099e-27  3.6718868530854171e-27  3.6822017946645255e-27  3.6661057923600018e-27  3.6239760974402327e-27  3.6638898067828529e-27  3.6912681713869511e-27  3.7170440733477241e-27  3.6534798401425891e-27  3.6790008523516532e-27  3.6351916985112535e-27  3.8014568449625346e-27  3.8231795269166957e-27  3.8432457097414008e-27  3.8616153503427159e-27  3.8561464639879491e-27  3.8279339963656844e-27  3.8073612769837887e-27  3.6710983751757836e-27  3.7846931193311372e-27  3.6665284790408310e-27  3.7604637743054119e-27  3.6593522476352056e-27  3.7314624661904724e-27  3.7378504397473953e-27  3.7496966348896476e-27  3.8094887645618123e-27  3.7952078884736970e-27  3.7712461989263113e-27  3.6492961170796642e-27  3.7635560414485859e-27  3.6702143764777037e-27  3.7868942051945029e-27  3.7767582414497643e-27  3.7914104911437102e-27  3.6714306648988664e-27  3.7522637036311810e-27  3.7813384564363607e-27  3.6803157164281328e-27  3.8132729440268354e-27  3.7429203338716491e-27  3.7203643793721581e-27  3.7309330947583181e-27  3.6543520820096191e-27  3.7471152004715999e-27  3.6641741152811574e-27  3.6545642227622490e-27  3.7341387896644635e-27  3.6617089909936189e-27  3.6612111297175179e-27  3.6465260300029655e-27  3.6435362343507265e-27  3.6482667138237905e-27  3.6157926022717233e-27  3.6437459580900149e-27  3.6202285134049899e-27  3.6397087397716862e-27  3.6259001410474160e-27  3.6308033575539742e-27  3.6307805190359688e-27  3.6658763107778075e-27  3.6292111496758840e-27  3.6387432254087917e-27  3.6310433095105688e-27  3.6695346703307766e-27  3.6365839421105074e-27  3.6435674211892922e-27  3.6880133682677198e-27  3.6780002717951212e-27  3.6356937766731840e-27  3.6450304505767538e-27  4.7481264450637491e-27  4.4862494921510985e-27  4.4451071809638592e-27  4.3866896387670132e-27  4.3741567776375095e-27  4.1732061689245174e-27  4.0168572163580975e-27  3.7102126532902481e-27  4.1755147441532907e-27  4.5196947981690527e-27  4.4419463309853339e-27  4.9523451694775587e-27  4.7777496466441099e-27  4.6242962892204877e-27  4.8596415600439801e-27  5.1812623006994781e-27  3.8732068162771307e-27  3.8243517555376848e-27  4.4602599031720843e-27  4.3643119498839959e-27  3.8667853255457162e-27  3.8417578712909901e-27  3.9607857215469667e-27  4.6142382949296661e-27  4.1706106436927766e-27  3.8535012006303117e-27  4.56632743912