<?xml version="1.0"?>
<VTKFile type="UnstructuredGrid"  version="0.1"  >
<UnstructuredGrid>
<Piece  NumberOfPoints="5935" NumberOfCells="26642">
<Points>
<DataArray  type="Float64"  NumberOfComponents="3"  format="ascii">-50 -10.414456 14.585544  -50.6665165 -9.735582749999999 13.9048575  -51.33333325 -10.71845175 13.96425975  -50.66561325 -10.310429 13.439571  -51.3312265 -10.206402 12.293598  -51.99984975 -10.0395785 13.28357325  -51.33212975 -9.63155575 12.7588845  -51.9989465 -10.61442475 12.81828675  -52.66666650000001 -11.0224475 13.3429755  -51.333033 -9.0567095 13.224171  -52.666066 -7.698963 11.862798  -53.33288275 -8.681832 11.92220025  -52.66636625 -9.360705250000001 12.60288675  -52.66516275 -8.273809249999999 11.3975115  -52.6642595 -8.8486555 10.932225  -53.3319795 -9.25667825 11.45691375  -52.665463 -9.935551499999999 12.13760025  -53.33318300000001 -10.34357425 12.662289  -53.99969950000001 -9.664701000000001 11.9816025  -51.99864625 -8.9526825 12.078198  -51.997743 -9.52752875 11.6129115  -51.9995495 -8.37783625 12.5434845  -51.33333325 -11.00314975 14.663517  -50.80143675 -11.5351475 14.66341575  -51.6028735 -12.655839 14.7412875  -52.13477 -12.12384125 14.74138875  -52.13477 -11.83914325 14.0421315  -52.66666650000001 -11.3071455 14.04223275  -52.66666650000001 -11.5918435 14.74149  -50 -9.576753499999999 14.00209075  -50 -10.17434625 13.5685775  -50 -9.934236500000001 12.551611  -50 -9.33664375 12.98512425  -50.6665165 -9.495473 12.887891  -50.6665165 -8.89788025 13.32140425  -50 -8.739051 13.4186375  -50 -7.063646 12.251731  -50.6665165 -7.22247525 12.15449775  -50.6665165 -8.060177750000001 12.737951  -50.6665165 -7.820068 11.7209845  -51.333033 -8.57649 11.190238  -51.333033 -7.97889725 11.62375125  -51.333033 -8.81659975 12.2072045  -51.333033 -8.219007000000001 12.64071775  -51.333033 -7.381304500000001 12.0572645  -50 -7.66123875 11.81821775  -50.6665165 -8.6577705 12.30443775  -50.6665165 -8.41766075 11.28747125  -50 -8.258831499999999 11.3847045  -50 -8.498941250000001 12.401671  -50 -9.096534 11.96815775  -50 -7.9013485 12.83518425  -50 -9.454017 10.517678  -50.6665165 -9.25536325 11.8709245  -50 -8.85642425 10.95119125  -50.6665165 -9.0152535 10.853958  -50 -9.694126750000001 11.5346445  -51.9995495 -7.540133750000001 11.96003125  -51.9995495 -8.137726499999999 11.526518  -50.66561325 -10.07031925 12.4226045  -50.66561325 -9.8302095 11.405638  -51.33212975 -9.391446 11.741918  -51.99864625 -8.71257275 11.0612315  -55.333333 -8.31115 11.442237  -54.66651625 -8.15810325 11.54737725  -54.66651625 -8.987925499999999 11.71191975  -54.66561300000001 -8.7329495 11.08209075  -53.997893 -9.154748999999999 10.7219445  -53.99969950000001 -8.834878750000001 11.81706  -53.99879625000001 -8.579902749999999 11.187231  -53.99879625000001 -9.409725 11.3517735  -53.99969950000001 -8.0050565 11.6525175  -53.3319795 -8.426855999999999 11.29237125  -53.33107625 -9.001702249999999 10.82708475  -53.33288275 -7.852009750000001 11.75765775  -53.205797 -12.768859 17.025344  -51.872489 -12.1801105 16.94740075  -52.40434775 -12.18025825 16.415394  -52.40434775 -11.66218775 16.9334645  -51.60289849999999 -10.5555165 16.841585  -51.07103975 -11.59150975 16.33745075  -51.07103975 -11.07343925 16.85552125  -51.60289849999999 -11.073587 16.3235145  -51.60289849999999 -11.5916575 15.805444  -50.539181 -11.591362 16.8694575  -52.67393824999999 -12.76871125 17.55735075  -52.14207949999999 -12.7685635 18.0893575  -51.34063025 -12.17996275 17.4794075  -51.87248899999999 -11.66204 17.46547125  -51.078362 -12.768268 19.153371  -50.8087715 -12.179815 18.01141425  -50.8087715 -11.6617445 18.52948475  -51.34063025 -11.66189225 17.997478  -51.07103975 -10.55536875 17.37359175  -50.539181 -10.555221 17.9055985  -50.539181 -11.0732915 17.387528  -51.61022075 -12.76841575 18.62136425  -50 -8.342174 16.657826  -50 -8.8602445 16.1397555  -50.2695905 -9.966768 16.76364175  -50.80144925 -9.44884525 16.7497055  -50.2695905 -10.4848385 16.24557125  -50.80144925 -9.96691575 16.231635  -50 -9.378315000000001 15.621685  -50.2695905 -9.4486975 17.28171225  -50 -9.896385500000001 15.1036145  -50.2695905 -11.002909 15.72750075  -50.80144925 -10.48498625 15.7135645  -50.80144925 -11.00305675 15.195494  -43.13899499999999 -14.784681 21.076324  -43.385859 -15.37129125 22.24284975  -43.91764675 -15.3717125 21.71064075  -43.9178565 -14.839124 22.2430195  -44.6962985 -15.958744 22.3449575  -42.60720724999999 -14.78425975 21.608533  -42.85386149999999 -15.9034585 22.24268  -42.0754195 -14.7838385 22.140742  -50.6665165 -8.18137125 15.459069  -51.33333325 -8.61821625 16.030604  -50.6665165 -8.69944175 14.9409985  -51.33333325 -9.13628675 15.5125335  -52.66666650000001 -8.894258499999999 15.403382  -51.99984975 -8.457413499999999 14.831847  -51.333033 -8.0205685 14.260312  -51.33333325 -10.17242775 14.4763925  -51.33333325 -9.65435725 14.994463  -51.99984975 -9.4935545 13.795706  -51.99984975 -8.975484 14.3137765  -52.66666650000001 -9.412329 14.8853115  -52.66666650000001 -9.9303995 14.367241  -50.6665165 -9.217512249999999 14.422928  -51.333033 -8.538639 13.7422415  -55.333333 -9.446343000000001 14.148938  -54.66651625 -9.009498000000001 13.577403  -53.99999975 -9.688371249999999 14.2580895  -53.99999975 -9.170300749999999 14.77616  -53.33318300000001 -8.733455750000001 14.204625  -53.33318300000001 -9.251526250000001 13.6865545  -53.99969950000001 -8.572653000000001 13.005868  -53.33288275 -8.135808000000001 12.434333  -52.66636625 -8.81468125 13.1150195  -52.66636625 -8.296610749999999 13.63309  -51.9995495 -7.859765749999999 13.061555  -46.82368 -14.895272 21.281047  -46.04095625000001 -13.784126 21.17491675  -46.5674135 -13.7813655 20.65122  -46.567498 -13.2489925 21.18350875  -46.31114700000001 -12.667459 20.021393  -45.78468975000001 -12.6702195 20.54508975  -46.31123150000001 -12.135086 20.55368175  -45.25823250000001 -12.67298 21.0687865  -46.8237645 -14.362899 21.81333575  -46.823849 -13.830526 22.3456245  -45.798614 -10.439646 18.761739  -45.52842325 -11.556313 19.91526275  -45.27215675 -10.4424065 19.28543575  -46.054965 -11.0211795 19.92385475  -44.7456995 -10.445167 19.8091325  -46.0548805 -11.5535525 19.391566  -46.31131600000001 -11.602713 21.0859705  -49.754252 -12.1821125 19.063636  -49.75419725 -12.7143515 18.531452  -50.286069 -12.18234875 18.531583  -49.493776 -11.5964295 17.909795  -48.43008725 -12.128196 18.441717  -48.961959 -11.59619325 18.441848  -48.96190425 -12.12843225 17.909664  -48.4300325 -12.660435 17.909533  -48.430142 -11.595957 18.973901  -50.01467325 -13.3000345 19.685293  -50.54654499999999 -12.76803175 19.685424  -50.014728 -12.7677955 20.217477  -48.69056325 -12.713879 19.595558  -49.222435 -12.18187625 19.595689  -49.48285625 -13.29979825 20.217346  -48.9509845 -13.831801 20.217215  -50.54649025 -13.30027075 19.15324  -50.0146185 -13.8322735 19.153109  -49.22238025 -12.71411525 19.063505  -49.2223255 -13.24635425 18.531321  -49.4828015 -13.83203725 19.685162  -48.950875 -14.896279 19.152847  -48.69050850000001 -13.246118 19.063374  -48.69045375 -13.778357 18.53119  -49.48274675 -14.36427625 19.152978  -48.95092975 -14.36404 19.685031  -48.951094 -12.767323 21.281583  -48.690618 -12.18164 20.127742  -48.95103925 -13.299562 20.749399  -49.482911 -12.76755925 20.74953  -47.90919 -10.424591 16.666219  -48.16966600000001 -11.010274 17.82006  -48.16961125 -11.542513 17.287876  -48.701483 -11.01051025 17.288007  -55.333333 -5.753688 12.918787  -55.333333 -6.393053500000001 12.5496495  -54.66651625 -6.24000675 12.65478975  -54.66651625 -7.163170500000001 12.9623275  -54.66651625 -7.802536 12.59319  -53.99969950000001 -7.64948925 12.69833025  -53.99969950000001 -6.7263255 12.3907925  -54.66651625 -6.879372249999999 12.28565225  -55.333333 -7.032419 12.180512  -55.333333 -6.676851750000001 13.22632475  -54.66651625 -8.08633425 13.26986525  -55.333333 -7.6000155 13.5338625  -55.333333 -7.31621725 12.85718725  -54.66651625 -7.51873775 11.91651475  -54.66651625 -8.4419015 12.2240525  -53.99969950000001 -7.365691 12.021655  -53.99969950000001 -8.28885475 12.32919275  -55.333333 -8.59494825 12.11891225  -55.333333 -7.95558275 12.48804975  -54.66651625 -8.72569975 12.90072775  -55.333333 -8.239381 13.164725  -55.333333 -8.8787465 12.7955875  -55.333333 -7.671784499999999 11.8113745  -55.333333 -9.16254475 13.47226275  -55.333333 -8.52317925 13.84140025  -53.33288275 -7.21264425 12.12679525  -55.333333 -10.641026 17.025641  -54.80145025 -9.85481725 17.35364825  -55.333333 -9.854945000000001 16.82163775  -53.99999975 -10.066313 16.93368725  -52.66666650000001 -9.4916 16.8417335  -53.46811700000001 -9.280104250000001 17.2616945  -53.99999975 -9.280232 16.729684  -55.333333 -9.068864 16.6176345  -54.80145025 -9.068736250000001 17.149645  -54.2695675 -9.0686085 17.6816555  -54.80145025 -10.64089825 17.5576515  -53.46811700000001 -10.06618525 17.46569775  -54.2695675 -10.6407705 18.089662  -54.2695675 -9.854689499999999 17.88565875  -53.205802 -10.640515 19.153683  -53.73768475 -9.85456175 18.41766925  -52.93623425 -9.2799765 17.793705  -52.93623425 -10.0660575 17.99770825  -53.46811700000001 -8.49402325 17.05769125  -52.66666650000001 -8.705518999999999 16.63773025  -52.66666650000001 -7.919438 16.433727  -52.4043515 -10.06592975 18.52971875  -52.13478375 -8.70539125 17.16974075  -52.13478375 -9.491472250000001 17.373744  -51.602901 -9.4913445 17.9057545  -53.73768475 -10.64064275 18.6216725  -51.33333325 -8.130806 16.5457765  -50.8014505 -8.91675925 17.28179025  -51.33333325 -8.916886999999999 16.74977975  -55.333333 -7.496702 16.209628  -54.80145025 -8.282655249999999 16.94564175  -53.99999975 -7.708069999999999 16.3216775  -53.99999975 -8.494151 16.52568075  -55.333333 -8.282783 16.41363125  -45.50851975 -14.3043435 21.18713625  -45.75998925 -15.427008 21.81300225  -46.2919395 -14.89484575 21.813214  -45.760199 -14.8944195 22.345381  -44.444829 -14.8360795 21.7190915  -45.22824875 -15.42658175 22.34516925  -48.162809750000
[...]
<PointData  Scalars="c_HbO2"> 
<DataArray  type="Float64"  Name="c_HbO2"  format="ascii">2.3536202323201254e-17  1.8476753846791762e-17  1.8480815199871190e-17  1.7390122760561201e-17  2.0989225194408916e-17  2.0901126200672995e-17  2.1054073167224357e-17  2.1604651843127535e-17  1.9648769616622526e-17  2.1192651732147621e-17  2.0000000000000001e-17  2.0128572889216280e-17  1.8899567631095864e-17  2.0000000000000001e-17  2.0000000000000001e-17  2.0835285880672588e-17  1.9416852510499014e-17  1.9958296871435209e-17  2.0378733009192533e-17  1.8995582475624270e-17  1.9501371600628466e-17  1.9799731679392471e-17  1.8859983149931881e-17  1.8441744067850678e-17  2.0121062721351206e-17  2.0923308616072892e-17  2.1664023264765679e-17  1.9881380227792335e-17  1.9885480287295104e-17  2.1758765634182669e-17  3.0015900273807547e-17  1.8904882672514927e-17  1.7243977950989098e-17  2.2410668382805842e-17  2.2213363577452466e-17  2.0054012175489980e-17  2.0000000000000001e-17  2.0000000000000001e-17  2.0150772058887496e-17  2.0000000000000001e-17  2.0000000000000001e-17  2.0000000000000001e-17  1.9136796500201401e-17  1.9803756015637814e-17  2.0000000000000001e-17  2.0000000000000001e-17  1.9540085156694935e-17  2.0000000000000001e-17  2.0000000000000001e-17  2.0344113862284458e-17  2.3923673754215762e-17  2.0595291720583632e-17  2.0000000000000001e-17  1.6315204938326950e-17  2.0000000000000001e-17  2.0000000000000001e-17  2.3188608550491298e-17  2.0000000000000001e-17  2.0000000000000001e-17  2.2453104723822936e-17  2.0452778543121172e-17  1.9593432363095525e-17  2.0000000000000001e-17  2.0000000000000001e-17  2.0000000000000001e-17  2.0083564977536908e-17  2.0000000000000001e-17  2.0000000000000001e-17  1.9585584718329098e-17  2.0000000000000001e-17  1.9298905761743726e-17  2.0000000000000001e-17  2.0000000000000001e-17  2.0000000000000001e-17  2.0000000000000001e-17  2.2206418835971610e-17  2.1406235176375628e-17  2.1138152713293644e-17  2.0928460794698216e-17  2.0142028821111830e-17  2.0459194229074403e-17  1.9804553746840245e-17  2.0335580497761286e-17  1.9582121139837663e-17  1.9673757892408077e-17  2.1837358040782531e-17  2.1994586440390687e-17  2.1278352912759354e-17  2.1173229363438598e-17  2.2078382005448740e-17  2.1411468231997741e-17  2.1395650600327559e-17  2.1502605816563177e-17  1.9863833470962423e-17  2.0145089164348196e-17  1.9726447577915718e-17  2.1914790823537732e-17  2.4098269444262444e-17  2.4542014840822098e-17  2.3243432797569905e-17  1.9111293971080286e-17  1.8283444697250811e-17  1.9507815808247995e-17  2.2356376247080691e-17  2.0397613810149070e-17  2.6151792858972737e-17  2.2346337118153055e-17  1.8767857966715560e-17  1.8581916339280977e-17  2.1966001849360478e-17  2.2053801482078763e-17  2.2022565599264524e-17  2.2025963761584688e-17  2.2154704814397756e-17  2.2007826753921557e-17  2.2080121447194586e-17  2.2042707230641721e-17  1.8092821659374007e-17  1.8297637435151458e-17  1.9339871595067440e-17  1.9045515676581580e-17  1.9761733797858615e-17  2.1430118201219560e-17  2.1497904353067636e-17  1.8797701517229226e-17  1.8122064630183034e-17  2.1571135294551159e-17  2.1393341935216631e-17  1.9582631445967045e-17  1.9682763829645503e-17  1.7863451583974717e-17  2.0754500824595304e-17  2.1657642186078466e-17  2.0502663137361948e-17  2.0373667315941418e-17  2.0673991415922946e-17  1.9601596093311809e-17  1.9887107282626439e-17  2.0396112872957378e-17  2.0460233168652584e-17  1.9445733564331153e-17  1.9025079879057426e-17  1.9456280828972298e-17  2.2114674257847000e-17  2.1873293124688560e-17  2.1801391934061172e-17  2.1824975214114492e-17  2.1586097152310678e-17  2.1663342245791459e-17  2.1615811593830205e-17  2.1769270309575375e-17  2.2126382047645069e-17  2.2122199727945963e-17  2.2040796276887191e-17  2.1807415735163329e-17  2.2136682699311933e-17  2.1737681643415849e-17  2.2106289977998579e-17  2.1737966795886218e-17  2.1638912355510481e-17  2.1456690106614076e-17  2.1415014934562909e-17  2.1278172102032992e-17  2.0690387908395443e-17  2.0981727702976916e-17  2.0790385763964871e-17  2.0582862408401763e-17  2.0984228755960812e-17  2.1120092297108572e-17  2.2035868476806943e-17  2.1979148855431082e-17  2.2075605394769609e-17  2.1490235461456173e-17  2.1470391269317550e-17  2.2091495731666851e-17  2.2087680136554871e-17  2.1955846539940682e-17  2.2079463787363729e-17  2.1368418234696672e-17  2.1432844317248489e-17  2.2080319031936146e-17  2.2078943943528095e-17  2.1529231286345791e-17  2.1502934922176764e-17  2.2044119101775308e-17  2.2053355336403899e-17  2.2091227101964539e-17  2.1584678749769483e-17  2.2057685090591719e-17  2.2073631045263515e-17  2.1299061362685183e-17  2.1510947143104568e-17  2.1611770249857314e-17  2.2172752642801997e-17  2.0000000000000001e-17  2.0000000000000001e-17  2.0000000000000001e-17  1.9821217958023295e-17  2.0012161329776101e-17  1.9614548328795532e-17  2.0000000000000001e-17  2.0000000000000001e-17  2.0000000000000001e-17  1.9986773441626298e-17  2.0425754362069045e-17  2.1058539623504536e-17  2.0272908326082159e-17  2.0000000000000001e-17  1.9623548008540358e-17  2.0000000000000001e-17  1.9551914570440436e-17  2.0525108640850697e-17  2.0214513435709493e-17  2.0382514834052066e-17  2.0945255407955218e-17  2.0919576647275401e-17  2.0000000000000001e-17  2.1775767294075959e-17  2.1954746354738240e-17  2.0000000000000001e-17  2.2222260232665468e-17  2.2220571603134147e-17  2.1734534197148660e-17  2.1284511843398792e-17  2.0115719351738283e-17  2.0965524162457931e-17  2.1122096758054116e-17  2.2159836716016055e-17  2.1862306837403558e-17  2.1563145906641287e-17  2.2192277238480059e-17  2.1615306450738287e-17  2.2001106785582507e-17  2.1554619650579054e-17  2.2208735682730272e-17  2.2146280039991995e-17  2.0450182634972618e-17  2.1413567446226305e-17  2.0762034368690374e-17  2.0077542721293165e-17  2.1635468872513791e-17  2.1338468120082987e-17  2.2438308831451097e-17  2.1059617269810488e-17  1.9798982785074216e-17  2.1771198850031255e-17  1.7322297101117130e-17  1.8825584573121460e-17  1.8657995082848297e-17  2.2356448197228012e-17  2.1744008601769310e-17  1.9705080598699598e-17  2.0812136918426180e-17  2.1738200377434371e-17  2.1917602351712889e-17  2.2147787852012105e-17  2.2128379839133565e-17  2.2137704950763069e-17  2.1988680966465322e-17  2.2159322052294049e-17  2.1603325859831459e-17  2.1319930110560629e-17  2.1196349063206202e-17  2.1069749644124377e-17  2.1607003536483205e-17  2.1639387009287211e-17  2.1640819704845994e-17  2.1368407739877320e-17  2.1394953849106826e-17  2.1233508133126024e-17  2.1843625461195287e-17  2.1589290326297391e-17  2.1624108838981067e-17  2.1910015276993665e-17  2.1647117364476112e-17  2.1598164691367412e-17  2.2083273618518697e-17  2.1674665865861101e-17  2.1728245512426510e-17  2.2076927923096399e-17  2.1326359674996609e-17  2.1960688313785625e-17  2.1979894992904041e-17  2.2074524187590829e-17  2.1334104924732162e-17  2.1367502706704529e-17  2.2003011652555622e-17  2.2066998359628583e-17  2.0568068476674509e-17  2.1328503401110559e-17  2.0264177397655742e-17  2.0583933638262069e-17  2.1364727834455687e-17  2.1987692864229098e-17  2.1997984195421567e-17  2.1464853578912136e-17  2.1937253083045382e-17  2.2054850954334292e-17  2.1716901056616914e-17  2.1402828242350316e-17  2.1842660609995089e-17  1.9652946226747039e-17  2.0338024396015975e-17  1.9861140796202148e-17  2.0985976574078670e-17  2.1069757173826147e-17  1.8884083810661255e-17  2.0399519185439522e-17  1.9130182670694758e-17  2.0653012600744819e-17  2.0393287192102008e-17  2.0371102068916263e-17  1.9937827660719553e-17  2.0245344146623076e-17  2.0000000000000001e-17  2.0355733978720408e-17  2.0000000000000001e-17  1.8888418918680336e-17  2.0000587524795797e-17  2.0000000000000001e-17  2.0279148332155600e-17  2.0633303760477427e-17  2.0028785922473305e-17  2.0376669534227056e-17  2.0000000000000001e-17  2.2130021694823350e-17  2.1849237368285471e-17  2.0474888375500520e-17  2.1632022587277724e-17  2.1652278638565774e-17  2.0642168747833278e-17  1.7223595350528121e-17  1.9711718419513774e-17  2.1445372798870385e-17  2.1503903788707199e-17  2.6528685585180713e-17  2.0000000000000001e-17  1.9033770251324919e-17  1.9641519523896572e-17  2.0000000000000001e-17  2.0396109153597491e-17  2.0083622728819138e-17  2.0049443324689367e-17  2.0427122886954449e-17  2.0765062610190391e-17  2.1108734047012376e-17  2.1644851308862398e-17  2.1295805466197239e-17  2.1962458151023265e-17  2.0440547102085391e-17  2.0427399481923720e-17  2.1848156354050244e-17  2.1504374515490204e-17  2.0527014737423219e-17  2.1772843006964823e-17  2.1779990437893038e-17  2.1439480034956422e-17  2.0632827586083027e-17  2.0814993304964586e-17  2.0880152619269175e-17  2.1429797133645656e-17  2.1592823853841884e-17  2.1557927164818606e-17  2.0859098300906624e-17  2.1109197763768311e-17  2.1185495007868909e-17  2.1515905257228258e-17  2.1743817731333066e-17  2.1426004283322902e-17  2.1548267421921553e-17  2.1592649651533259e-17  2.1772452667985211e-17  2.1531261684842610e-17  2.1586833685999693e-17  2.1722132944352485e-17  1.9941460470187994e-17  2.0228860707690526e-17  1.8976086940841562e-17  2.0290540407032666e-17  2.0430950643789528e-17  2.0058937450470520e-17  2.1627033073065201e-17  2.1307106851929247e-17  2.0621062658881732e-17  2.1427554508608728e-17  2.0658609880164467e-17  2.1913328330215783e-17  2.1730558481829889e-17  2.1843065367938313e-17  2.1546809142344404e-17  2.1512109941586643e-17  2.2227101258075591e-17  2.2135807553731733e-17  2.1704148494217819e-17  2.2268122601456533e-17  2.1338540886035019e-17  2.1948825163873570e-17  2.2591801384615909e-17  2.1851867994510940e-17  2.2043688370543602e-17  2.1746144092450497e-17  2.2141915091828834e-17  2.1512205085220469e-17  2.2001832748114818e-17  2.2693618316255808e-17  2.1315081032529974e-17  2.1911878704146510e-17  2.2202796618835103e-17  2.2119733707404896e-17  2.1403015989439714e-17  2.2107673599690927e-17  2.2861687525249078e-17  2.1692148104683139e-17  2.1634199290866584e-17  2.2043487362175434e-17  2.2417635579097426e-17  2.1703604554748963e-17  2.2197068379940936e-17  2.2072256912127764e-17  2.1751920479374768e-17  2.1915404843454746e-17  2.1975773976357361e-17  2.1577768301854833e-17  2.2199792242835535e-17  2.1214408420106210e-17  2.1572940368159378e-17  2.0972918257785625e-17  2.2185290220682437e-17  2.2110585974371820e-17  2.1312939514894706e-17  2.0902668097145409e-17  2.1200065017564480e-17  2.0686759835337474e-17  2.2266789562431537e-17  2.1325981242394298e-17  2.1632926022896365e-17  1.9626446696288856e-17  1.8784265830417139e-17  1.9942536573729391e-17  2.1740127782417207e-17  2.1185560407414333e-17  2.2027725940214076e-17  2.1212651723117458e-17  2.1936661239411159e-17  2.1323221635530783e-17  2.1863482713519534e-17  2.1433682629618900e-17  2.1824983779691978e-17  2.0673533449535019e-17  2.1558647335533625e-17  2.1686585872442200e-17  1.9994289742857883e-17  1.8539382381545915e-17  2.0193622886320536e-17  2.0263731436672370e-17  2.1898400261754233e-17  2.2045811491013226e-17  2.2076951783884119e-17  2.2030002776238936e-17  2.1287113506379876e-17  2.1400684764416182e-17  2.2036446291195535e-17  2.1747502695786783e-17  2.1282842809212786e-17  2.1345492817414365e-17  2.2026865186371931e-17  2.1946253565331579e-17  2.1492303028333610e-17  2.1896838944061152e-17  2.1969576793904675e-17  2.1530720350307969e-17  2.2007584892286808e-17  2.4176488735302421e-17  2.0147719050737599e-17  2.0634256368283000e-17  2.0528608563075848e-17  2.0314883258784390e-17  1.9449930605052281e-17  2.1889475353247660e-17  2.1591206875824734e-17  2.1938874903279091e-17  2.1908159542397652e-17  2.1656979470953982e-17  2.2093597917295113e-17  2.2113263001762641e-17  2.1983957009065818e-17  2.1930479629644947e-17  2.2161127406914283e-17  2.2147069172007012e-17  2.2146059658715887e-17  2.2149486656399106e-17  2.2146434023471145e-17  2.1974778505500887e-17  2.1879433354615375e-17  2.2112321987615698e-17  2.2163292861656029e-17  2.2129202615801262e-17  2.1938347577514354e-17  2.2164069211963519e-17  2.2010382209563082e-17  2.2173096260481233e-17  2.2164205206936187e-17  2.2259822562122893e-17  2.2159705290318131e-17  2.2200652979966670e-17  1.9818760247596656e-17  2.0419719275816625e-17  2.1437130035693219e-17  2.0644537498360344e-17  2.1483403545264384e-17  1.3578975819613235e-17  2.2921282174769010e-17  2.1483921935522853e-17  2.0414552741225029e-17  2.1080886686371817e-17  2.1423602379613854e-17  2.1374023396977084e-17  2.0352763621993863e-17  1.6256954219441660e-17  2.1215023955412753e-17  2.1161553459476283e-17  2.0187295195842342e-17  2.0805087243081016e-17  2.1449624130679857e-17  2.1148049552535525e-17  2.0103368210408904e-17  2.2050892334584236e-17  3.0535850540303235e-17  2.0121657005995633e-17  2.3184812751876321e-17  1.9050491176814447e-17  2.0000000000000001e-17  2.0000000000000001e-17  1.8851128637514722e-17  2.0000000000000001e-17  2.0000000000000001e-17  2.0000000000000001e-17  1.9179725391966623e-17  2.4542952519701908e-17  2.0000000000000001e-17  1.9952103079988151e-17  2.0000000000000001e-17  2.1702623217768430e-17  2.1742117233805698e-17  2.1522931555362955e-17  2.1482169690862659e-17  2.2074559800590917e-17  2.1758670464136686e-17  2.1754883117166181e-17  2.2101818411215121e-17  2.2107386504360328e-17  2.2115886359219509e-17  2.2111520627262232e-17  2.1484527482933673e-17  2.0625384326815434e-17  2.0963446639584654e-17  2.0298478356275816e-17  2.1901094469856838e-17  2.0993421080618354e-17  1.7715112738877152e-17  2.0040256550467127e-17  2.0000000000000001e-17  1.9450388265856342e-17  2.0000000000000001e-17  1.9611916384153235e-17  2.0000000000000001e-17  2.0397269353699730e-17  2.0000000000000001e-17  2.0000000000000001e-17  2.0000000000000001e-17  2.1483080067713084e-17  2.0040097313770625e-17  2.1088911161261819e-17  2.1048627829839106e-17  2.1724328486471830e-17  2.0257382695131818e-17  2.1074671638617312e-17  2.0492826959758664e-17  2.1327095802765641e-17  2.1907081706699311e-17  2.0395892427898966e-17  2.1058597647621896e-17  2.1405560034947269e-17  2.1332517202896075e-17  2.0598587832830763e-17  2.0012858800711477e-17  2.0943332302205912e-17  2.0341119213831816e-17  2.2172610340042770e-17  2.2096607194273787e-17  2.2100499379529785e-17  2.2088356452852367e-17  2.2180548909186369e-17  2.2104233618913668e-17  2.2116468941971037e-17  2.2034640315978196e-17  2.2032489741191127e-17  2.2179802466693072e-17  2.2072060395807680e-17  2.2176898632024713e-17  2.2187025309805136e-17  2.2082553068016290e-17  2.2175355420064095e-17  2.2166102250395606e-17  2.2162305043680322e-17  2.2176474056000412e-17  2.2066526085466274e-17  2.2112536953398090e-17  2.2054834958956144e-17  2.1806618954745023e-17  2.2599112368302100e-17  2.2745987875879253e-17  2.2120972270331683e-17  2.1319973441623141e-17  2.1692298387684235e-17  2.2172324916109575e-17  2.1901039050275485e-17  2.1392958094686758e-17  2.2167889906300765e-17  2.1068055264735031e-17  2.1403257016732533e-17  2.1274528462940456e-17  2.2256298946482154e-17  2.1962777475842629e-17  2.1810410091467048e-17  2.1965969733981636e-17  2.1921421989490536e-17  2.2014059533378533e-17  2.2041631415310498e-17  2.1193007916890931e-17  2.0696431485972715e-17  2.0174232164278023e-17  2.0586868751493091e-17  2.2333095033549248e-17  1.9032985738632859e-17  2.1179470377952615e-17  2.0626107450618195e-17  2.0495856571574693e-17  2.0259180459576178e-17  2.0512901994552358e-17  2.1855445304310070e-17  2.1653158338631794e-17  2.1758576755321162e-17  2.1733411440114057e-17  2.2114436479816314e-17  2.1850374188973309e-17  2.1859727542226334e-17  2.2088094224210322e-17  2.2085059128898087e-17  2.1812541325692959e-17  2.2143209529696637e-17  2.1911025031848769e-17  2.2137028570442297e-17  2.1911695165748124e-17  2.1893103474274617e-17  2.2129228504651910e-17  2.1823878795432703e-17  2.1886936155625229e-17  2.2003312495836726e-17  2.1548766652008990e-17  2.1480910395533329e-17  2.2016039605054073e-17  2.2093594183266576e-17  2.2050735990462037e-17  2.1958796001445507e-17  2.2033347563163786e-17  2.2162631645345984e-17  2.2206975926788465e-17  2.1809239230365923e-17  2.1824654781113328e-17  2.1999352830173445e-17  2.1832129057996976e-17  2.1531795793404706e-17  2.2164891212026781e-17  2.2653290002157949e-17  2.1738748259241832e-17  3.0894850502013217e-17  1.9492451800942628e-17  1.8592954288948315e-17  1.7791597904170334e-17  2.1313004018590329e-17  2.1937872246525189e-17  2.2276377565336459e-17  2.1948216368539326e-17  1.9793104629807495e-17  2.0674135940272735e-17  2.2057879711865341e-17  2.1978689795904351e-17  2.1819341725881094e-17  2.1340847537660014e-17  2.1451684073269752e-17  2.2065176100374949e-17  2.1653153780824759e-17  2.2089913643611071e-17  2.2065646040384181e-17  2.1429281243304655e-17  2.1682403394311360e-17  2.2081099177484217e-17  2.1752054099934164e-17  2.2076897867977346e-17  2.2110455821048829e-17  2.2153664679365605e-17  2.2127565888229177e-17  2.1069391117476497e-17  2.2004145759596643e-17  2.1274120920845334e-17  2.2014906442178202e-17  2.1931328399342774e-17  2.1929349574893532e-17  2.1659175214155568e-17  2.1676307689124537e-17  2.2030118779053917e-17  2.2010666492624999e-17  2.2106134113579683e-17  2.1589906049236611e-17  2.1694181405069950e-17  2.1714000848635090e-17  1.9516419170270536e-17  2.5095832098481724e-17  1.8056452458019736e-17  1.8254725390623491e-17  8.8390741306963068e-18  2.1827261547766219e-17  1.7374127297552144e-17  2.0137818649626883e-17  2.1196592351095489e-17  2.1761104025107142e-17  2.2533432391867857e-17  1.6405008125799381e-17  2.0492086774953897e-17  2.0958639030573062e-17  2.0802643483997192e-17  2.1978086520601762e-17  2.0567417270264060e-17  1.9578126926829909e-17  2.0987165909035796e-17  2.0560998377246509e-17  2.1889709619826153e-17  2.2187184047816129e-17  2.2184145077974420e-17  2.0119149474329920e-17  2.0000000000000001e-17  2.0000000000000001e-17  2.0000000000000001e-17  1.9981025467126697e-17  2.2090963874059730e-17  2.1169368681169640e-17  2.2005265198155883e-17  2.1143081920424518e-17  2.1909149964987783e-17  2.1456827703182438e-17  1.9900800591150081e-17  1.9952675035157283e-17  2.0000000000000001e-17  1.9970837942472212e-17  2.0029140324783612e-17  2.0000000000000001e-17  2.0145424871965616e-17  2.0000000000000001e-17  2.0000000000000001e-17  2.0130845223686069e-17  2.0713463193004787e-17  1.9546156108588332e-17  2.0000000000000001e-17  1.9973593201601538e-17  2.0198011483000494e-17  2.0251934510662209e-17  2.1106834227849978e-17  2.2199916619689259e-17  2.2153611366764242e-17  2.2167544891766200e-17  2.2159258890870485e-17  2.2138092325744924e-17  2.2125390066810469e-17  2.2143883068073204e-17  2.2151051507775547e-17  2.2139806685497431e-17  2.2118676140293336e-17  2.2198678415711926e-17  2.2190643066186658e-17  2.2194819976696088e-17  2.2138530090095687e-17  2.2133220649724091e-17  2.2147840319611532e-17  2.2199222023781993e-17  2.2193898532350466e-17  2.2187237540166832e-17  2.2149357323095864e-17  2.2155644513714368e-17  2.2202107699526914e-17  2.2196478992128697e-17  2.2200663839444784e-17  2.2155122912757130e-17  2.2142117786563349e-17  2.2197870261173628e-17  2.2192133056140336e-17  2.2159690254094824e-17  2.2166375064880008e-17  2.2181221146140135e-17  2.2195833758740274e-17  2.2194125574976773e-17  2.2125076022128829e-17  2.2190581122992501e-17  2.2148906362063867e-17  2.2117211398347126e-17  2.2107285427924623e-17  2.2095036182516941e-17  2.2202025324893265e-17  2.2132008142516179e-17  2.2140028827495740e-17  2.2192490274974569e-17  2.2179768776813101e-17  2.2103508893619771e-17  2.2112575921120766e-17  2.2120646801196217e-17  2.2096618439309144e-17  2.2089817108414473e-17  2.2067061121500280e-17  2.2190186665628461e-17  2.2132402157200232e-17  2.2125651066634384e-17  2.2114519967835358e-17  2.2106135124399608e-17  2.2076069416682552e-17  2.2086137752646314e-17  2.2040741234022290e-17  2.2053145668288979e-17  2.2040238640850207e-17  2.2012005065294796e-17  2.1996658235496