<?xml version="1.0"?>
<VTKFile type="UnstructuredGrid"  version="0.1"  >
<UnstructuredGrid>
<Piece  NumberOfPoints="7018" NumberOfCells="26774">
<Points>
<DataArray  type="Float64"  NumberOfComponents="3"  format="ascii">40.440392 -38.31117 -4.248438  40.75992675 -37.053724 -3.18634925  40.008234 -35.820597 -3.171169  40.0150255 -36.8607555 -2.124219  41.504828 -37.24669249999999 -4.2484795  42.566556 -38.309337 -2.124107  41.503474 -38.3102535 -3.1862725  42.565398 -31.922041 8.512561  39.9891045 -31.6139625 7.396933000000001  40.437664 -32.985701 9.5766355  41.5018285 -31.921598 9.576574000000001  41.5012335 -32.986144 8.512622499999999  40.437069 -34.050247 8.512684  40.438259 -31.921155 10.640587  40.44188 -37.2477085 -5.310411500000001  40.443368 -36.184247 -6.372385  42.564172 -38.307596 2.128231  40.0138125 -37.9240925 -1.062095  41.0781075 -36.859839 -1.0620535  42.565364 -38.30846649999999 0.002062000000000008  41.501069 -39.37272 0.002020499999999981  41.0769155 -36.8589685 1.0641155  39.589659 -35.410341 0  41.502261 -39.3735905 -2.1241485  40.437966 -40.437844 -2.12419  42.56428 -36.179274 4.256445  41.068656 -34.760047 3.1712965  42.1124015 -33.715408 3.17219  42.114507 -34.75727 2.1282225  41.664734 -33.335266 0  40.618883 -33.338043 1.043074  41.6626285 -32.293404 1.0439675  41.660523 -31.251542 2.087935  40.6167775 -32.296181 2.0870415  39.573032 -33.34082 2.086148  40.439179 -39.37450699999999 -3.186314  42.564103 -40.435897 0  42.5653295 -39.372617 -1.0620535  43.6282055 -39.3717945 0  42.5641375 -39.3717465 1.0641155  41.5010345 -40.4368705 -1.062095  42.564674 -34.050772 6.384554  39.9974505 -32.653721 6.3488285  41.061615 -31.589618 6.348767  41.06125299999999 -32.6539835 5.2847635  41.5008715 -34.0505095 7.448619  42.565036 -32.9864065 7.4485575  39.557832 -31.257195 4.184973  41.0769695 -35.7948075 2.1282225  42.114453 -35.821431 1.0641155  42.564226 -37.243435 3.192338  40.6271965 -34.3728035 0  39.5813455 -34.3755805 1.043074  39.557542 -29.153459 -6.288998  39.5547225 -28.110415 -7.334861999999999  40.59970300000001 -27.070814 -7.3294835  41.06818 -29.4748065 -8.457013  39.551903 -27.067371 -8.380725999999999  41.068853 -33.695796 4.235351  40.6091775 -31.2543685 3.136454  39.565432 -32.2990075 3.1355605  29.79554 -40.447471 -12.756989  28.435247 -38.9557855 -11.608968  29.4729395 -38.959161 -10.5678995  28.435885 -40.00324000000001 -10.560875  27.07623 -39.559009 -8.364761  27.075592 -38.5115545 -9.412853999999999  28.1132845 -38.51493000000001 -8.3717855  29.150339 -37.470851 -8.37881  28.1126465 -37.46747550000001 -9.419878499999999  27.074954 -37.4641 -10.460947  27.666447 -31.934639 -23.398914  26.3559745 -29.4515035 -23.1925215  26.354124 -30.518162 -22.1277135  25.3271375 -30.5206865 -23.152176  27.6682975 -30.8679805 -24.463722  27.670148 -29.801322 -25.52853  25.328988 -29.454028 -24.216984  22.987828 -29.106734 -22.905438  24.0148145 -29.1042095 -21.8809755  25.041801 -29.101685 -20.856513  26.6014505 -30.8676285 -25.530921  26.5996 -31.934287 -24.466113  25.532753 -31.933935 -25.533312  24.2602905 -30.5203345 -24.219375  24.25753 -31.5612145 -23.181255  25.324377 -31.5615665 -22.114056  22.982307 -31.188494 -20.829198  22.9850675 -30.147614 -21.867318  24.012054 -30.1450895 -20.8428555  31.940885 -27.667883 -23.391232  29.517597 -27.3453965 -22.1370065  30.544873 -27.34402 -21.111107  30.5467935 -26.308122 -22.1450845  29.152702 -24.948361 -20.898937  28.1235055 -25.9856355 -20.890859  29.1507815 -25.984259 -19.8649595  29.148861 -27.020157 -18.830982  28.121585 -27.0215335 -19.8568815  27.094309 -27.02291 -20.882781  27.663651 -34.067139 -21.26921  26.349318 -32.6269645 -20.0237175  26.3446445 -33.672084 -18.9832715  27.374621 -32.626836 -18.998543  27.085591 -31.186533 -16.727876  25.0303115 -32.2319095 -17.737779  26.060288 -31.1866615 -17.7530505  26.0556145 -32.231781 -16.7126045  25.025638 -33.277029 -16.697333  25.034985 -31.18679 -18.778225  30.8721805 -28.734962 -23.3928575  29.803476 -29.802041 -23.394483  28.4488925 -28.4124755 -22.138632  29.4761685 -28.411099 -21.1127325  30.8744315 -27.6671555 -24.458413  28.4511435 -27.344669 -23.2041875  29.805727 -28.7342345 -24.4600385  29.807978 -27.666428 -25.525594  29.48034 -26.3073945 -23.2122655  34.075075 -25.533397 -23.391529  31.577671 -25.270848 -22.151481  32.644766 -24.203605 -22.1516295  32.6452515 -25.240453 -21.114296  33.00798 -26.60064 -23.3913805  31.5781565 -26.307696 -21.1141475  31.215428 -24.947509 -18.837063  31.2149425 -23.910661 -19.8743965  31.214457 -22.873813 -20.91173  40.453581 -29.797184 -12.749236  40.002742 -28.4322775 -10.564981  40.00096 -27.3902785 -11.608762  41.0668895 -27.366561 -10.5665495  41.5177285 -28.7314675 -12.7508045  39.548339 -24.983373 -10.468288  39.550121 -26.025372 -9.424506999999998  25.54829 -25.526223 -31.925487  23.222428 -25.2517885 -30.525783  25.545773 -26.594219 -30.8600075  24.479791 -26.5933575 -31.926852  23.411292 -27.660492 -31.928217  23.219911 -26.3197845 -29.4603035  22.153929 -26.318923 -30.527148  24.477274 -27.6613535 -30.8613725  25.543256 -27.662215 -29.794528  20.896566 -24.977354 -29.126079  31.927422 -38.319939 -12.752639  29.501188 -37.8920195 -11.606793  30.5388805 -37.895395 -10.5657245  30.861481 -39.383705 -12.754814  27.4226385 -29.451863 -22.125498  27.3822285 -28.412116 -23.2056555  28.736812 -29.8016815 -24.4615065  26.068055 -28.0622975 -20.869647  25.319827 -26.3177225 -27.3624505  24.253632 -26.316516 -28.4298515  24.263395 -27.348076 -27.3885285  26.609451 -27.6634215 -28.727127  27.675646 -27.664628 -27.659726  25.32959 -27.3492825 -26.3211275  22.983534 -27.033937 -24.982529  22.973771 -26.002377 -26.023852  22.964008 -24.970817 -27.065175  29.813426 -25.530034 -27.656539  27.379379 -25.2767815 -26.34384  28.448269 -24.2094845 -26.3422465  28.4520005 -25.2404 -25.3075995  28.744536 -26.597331 -27.6581325  27.3831105 -26.307697 -25.309193  27.090575 -24.950766 -22.95866  27.0868435 -23.9198505 -23.993307  27.083112 -22.888935 -25.027954  34.071853 -27.667902 -21.260245  32.6436405 -26.3077055 -20.048654  33.006369 -27.6678925 -22.3257385  34.073464 -26.6006495 -22.325887  36.201256 -27.667422 -19.131321  34.742816 -26.310173 -17.9470105  35.7851815 -25.275955 -17.938863  35.7853135 -26.315885 -16.898801  35.369371 -24.964348 -14.666281  34.3268735 -24.958636 -15.7144905  35.369239 -23.924418 -15.706343  35.369107 -22.884488 -16.746405  34.3267415 -23.918706 -16.7545525  33.284376 -24.952924 -16.7627  38.333484 -25.534165 -19.132351  36.8512955 -24.2093265 -17.939378  36.8514275 -25.2492565 -16.899316  37.26737 -26.6007935 -19.131836  31.930552 -34.065257 -17.004192  30.538696 -32.629247 -15.8320575  30.536262 -33.67349400000001 -14.7902445  31.5715985 -32.6323115 -14.796091  31.212645 -31.199366 -12.58799  29.144406 -32.237484 -13.61811  30.1797425 -31.1963015 -13.6239565  30.1773085 -32.2405485 -12.5821435  29.141972 -33.281731 -12.576297  29.14684 -31.193237 -14.659923  34.079532 -23.398003 -25.522465  31.5825215 -22.102765 -25.314714  31.5812955 -23.170393 -24.2483125  32.648684 -22.1033535 -24.247963  33.0133695 -23.3974145 -26.589216  33.0121435 -24.4650425 -25.5228145  31.944755 -25.532082 -25.523164  31.945981 -24.464454 -26.5895655  31.947207 -23.396826 -27.655967  31.217836 -20.808704 -22.973461  34.055904 -40.444042 -8.500054  31.6044875 -40.004172 -7.3913405  32.6426855 -38.9612125 -7.396102000000001  32.6469165 -40.0085905 -6.3444925  31.237929 -39.573139 -4.188931  30.1955 -39.5687205 -5.235779  31.233698 -38.525761 -5.2405405  31.229467 -37.478383 -6.29215  30.191269 -38.5213425 -6.2873885  29.153071 -39.564302 -6.282627  29.4706225 -36.8491365 -12.680241  30.5364845 -36.8479705 -11.615545  30.86156 -38.321105 -13.817335  29.795698 -38.322271 -14.882031  28.435326 -37.8931855 -12.671489  28.1102505 -36.420051 -10.469699  29.145547 -35.376002 -10.478451  29.4789165 -22.1056805 -27.415403  30.5444385 -22.106889 -26.348672  30.543278 -21.075487 -27.381235  30.881685 -23.3956175 -28.722698  29.816163 -23.394409 -29.789429  29.14167 -20.816952 -25.041377  27.680274 -25.528343 -29.791383  27.381693 -24.208639 -27.4096685  26.3476555 -24.2145495 -28.437795  27.375879 -23.1785285 -28.4455925  27.071484 -20.828714 -27.099802  27.077298 -21.8588245 -26.063878  26.0432605 -21.864735 -27.0920045  25.015037 -22.900756 -27.084207  26.0490745 -22.8948455 -26.0560805  31.932878 -31.934519 -19.132603  30.5403065 -30.5194015 -17.9402915  31.571096 -30.5219875 -16.9069165  30.539859 -31.563878 -16.896263  29.1472875 -30.1487605 -15.7039515  30.178077 -30.1513465 -14.6705765  31.209314 -29.109456 -14.68123  30.1785245 -29.10687 -15.714605  29.147735 -29.104284 -16.74798  29.797522 -34.065792 -19.136687  28.4415565 -32.6261625 -17.9322815  28.439285 -33.67202450000001 -16.8886905  29.472181 -32.6295145 -16.898305  27.0833195 -32.232395 -15.684285  28.1162155 -31.189885 -15.6938995  28.113944 -32.235747 -14.6503085  27.081048 -33.278257 -14.640694  29.5092345 -31.560526 -17.9302395  28.116663 -30.1454085 -16.737928  34.064397 -31.932511 -17.003092  31.6056185 -31.562874 -15.8315075  32.9986375 -31.933515 -18.0678475  32.9974745 -32.998884 -17.003642  31.931715 -32.999888 -18.0683975  34.059882 -36.191148 -12.74897  32.6400005 -33.677178 -12.6828215  33.70472 -33.675911 -11.6193685  32.638966 -34.741428 -11.619606  34.0609165 -35.126898 -13.8121855  35.125636 -35.125631 -12.7487325  36.19139 -34.060114 -12.748495  35.1266705 -34.061381 -13.811948  34.061951 -34.062648 -14.875401  31.21805 -33.291708 -10.490242  36.195125 -31.931148 -14.873727  34.7435805 -29.4609175 -14.795502  35.7804245 -29.488701 -13.7308745  34.742068 -30.526539 -13.7313925  36.19663749999999 -30.8655265 -15.9378365  36.19815 -29.799905 -17.001946  35.781937 -28.4230795 -14.794984  33.289011 -29.12193 -12.589058  34.3273675 -28.084092 -12.58854  35.365724 -27.046254 -12.588022  31.926499 -40.446107 -10.627394  30.538419 -38.958479 -9.503102  31.9269605 -39.3830229999999
[...]
<PointData  Scalars="c_HbO2"> 
<DataArray  type="Float64"  Name="c_HbO2"  format="ascii">2.2221609451481461e-17  2.2219073369339997e-17  2.2228487901091456e-17  2.2236703200465532e-17  2.2222360920359360e-17  2.2216686939673158e-17  2.2216745716619339e-17  2.2218322042364157e-17  2.2219004084964430e-17  2.2219888598084709e-17  2.2215123436228390e-17  2.2218484397389881e-17  2.2219161320245855e-17  2.2218662716862905e-17  2.2216492887993705e-17  2.2218696786607865e-17  2.2224595655498557e-17  2.2206712846594890e-17  2.2210514560001152e-17  2.2209523797525826e-17  2.2214113558588559e-17  2.2206689977681134e-17  2.2195443284702887e-17  2.2218853852598871e-17  2.2212404839742750e-17  2.2221831630435811e-17  2.2218758596976363e-17  2.2220569732319163e-17  2.2218210583813075e-17  2.2195793935311190e-17  2.2251467880750260e-17  2.2226822462800865e-17  2.2213761598048524e-17  2.2209089195512625e-17  2.2203124214566344e-17  2.2223043204222051e-17  2.2212272225331297e-17  2.2232244034008500e-17  2.2221086182073541e-17  2.2219914472675574e-17  2.2233703860907750e-17  2.2219237014759111e-17  2.2218671221875962e-17  2.2218270009094427e-17  2.2221055174383522e-17  2.2214815268043513e-17  2.2219484787716804e-17  2.2215693828776688e-17  2.2244901489754795e-17  2.2211965909873147e-17  2.2214828300510675e-17  2.2157698750255154e-17  2.2222456643166083e-17  2.2217535571492539e-17  2.2217735322725247e-17  2.2218900901237714e-17  2.2218630871369720e-17  2.2217611581560441e-17  2.2220299369373655e-17  2.2225452080921972e-17  2.2224655802767651e-17  2.2218732056789533e-17  2.2218923149019465e-17  2.2218587225877534e-17  2.2219221602773314e-17  2.2218502083248336e-17  2.2217372418858564e-17  2.2219335233693852e-17  2.2218444114782096e-17  2.2220528913305804e-17  2.2218550869256783e-17  2.2218548281968461e-17  2.2218251213726611e-17  2.2218749374254626e-17  2.2218563628916812e-17  2.2218548244558166e-17  2.2218491570952146e-17  2.2219382323755834e-17  2.2218675292312983e-17  2.2220008024189489e-17  2.2218260089961561e-17  2.2218416075595472e-17  2.2217830507804953e-17  2.2217981456533313e-17  2.2218462225626224e-17  2.2218213153883931e-17  2.2219180999214980e-17  2.2218668949779788e-17  2.2217047972533394e-17  2.2218219516255265e-17  2.2218378820454714e-17  2.2218263579667140e-17  2.2218671201407844e-17  2.2218134088218872e-17  2.2218134806078527e-17  2.2217060639788858e-17  2.2219153754105687e-17  2.2217921509823202e-17  2.2220724647256498e-17  2.2218099208153617e-17  2.2218269973387100e-17  2.2218659011665037e-17  2.2218647075292542e-17  2.2218538501482202e-17  2.2218270379511198e-17  2.2217314645373534e-17  2.2220805074631166e-17  2.2218742666086872e-17  2.2218490263705537e-17  2.2218384589585483e-17  2.2219847367169700e-17  2.2218115842830122e-17  2.2218591785394773e-17  2.2217704809438788e-17  2.2217843070463963e-17  2.2217454732402572e-17  2.2218602694341288e-17  2.2218308959129670e-17  2.2218696273307839e-17  2.2218420023398371e-17  2.2217800379001457e-17  2.2218233840914445e-17  2.2218184171344009e-17  2.2220454787971025e-17  2.2218582250628828e-17  2.2218287964970324e-17  2.2220430171572887e-17  2.2218766052477763e-17  2.2217839212217869e-17  2.2218496747074815e-17  2.2218801671425467e-17  2.2219332557456515e-17  2.2221765720724773e-17  2.2217531910498350e-17  2.2217848332937590e-17  2.2218794220983717e-17  2.2218590824824838e-17  2.2219383683174314e-17  2.2217623807857533e-17  2.2218482685142729e-17  2.2218602358128555e-17  2.2218457681277701e-17  2.2218381829818709e-17  2.2218416440161521e-17  2.2217972952928604e-17  2.2217735972708580e-17  2.2218881540956826e-17  2.2218724278513707e-17  2.2218570715269075e-17  2.2218282668678887e-17  2.2219210611037570e-17  2.2216513833859365e-17  2.2218284079057508e-17  2.2217675038759500e-17  2.2218464453762522e-17  2.2218566100010332e-17  2.2218662487658472e-17  2.2218280590078501e-17  2.2218280613540084e-17  2.2218269892819941e-17  2.2217268668129414e-17  2.2218068627470396e-17  2.2218465115742362e-17  2.2217977809954159e-17  2.2218327210574258e-17  2.2218949095323823e-17  2.2219623932241109e-17  2.2217505898740367e-17  2.2218024080172643e-17  2.2219224365003815e-17  2.2218457694885028e-17  2.2218364494743797e-17  2.2218314033857079e-17  2.2217464084421157e-17  2.2216104534766593e-17  2.2218207258075835e-17  2.2217947378951873e-17  2.2217890230351795e-17  2.2218553574091258e-17  2.2218502359365205e-17  2.2220697421287321e-17  2.2217552590651036e-17  2.2218464898490947e-17  2.2214254144534529e-17  2.2219035734591375e-17  2.2217110278704046e-17  2.2218304011337647e-17  2.2219162612803982e-17  2.2222177710059518e-17  2.2217886359957533e-17  2.2218180445264931e-17  2.2218471553538224e-17  2.2219122911289360e-17  2.2218320369535449e-17  2.2216670752674884e-17  2.2220443045805734e-17  2.2218875660078943e-17  2.2218373271118848e-17  2.2218335582005855e-17  2.2218479819608302e-17  2.2219262539882534e-17  2.2217103328829386e-17  2.2218155374182381e-17  2.2219111043375133e-17  2.2219839318679055e-17  2.2218960079119026e-17  2.2217491427797611e-17  2.2218946468961692e-17  2.2219482607268540e-17  2.2218614861754829e-17  2.2219799304713180e-17  2.2219151619355818e-17  2.2219630804547576e-17  2.2214603272758789e-17  2.2221650407015461e-17  2.2219137424734730e-17  2.2217880525657307e-17  2.2219052241187064e-17  2.2217909901645319e-17  2.2218648149313723e-17  2.2218757954554897e-17  2.2218173131624021e-17  2.2217655164586519e-17  2.2218920614354689e-17  2.2219239666589561e-17  2.2218427876031788e-17  2.2217691331875932e-17  2.2218153425237355e-17  2.2218924427786233e-17  2.2220229827359435e-17  2.2218492972099834e-17  2.2219116369147446e-17  2.2218724197527767e-17  2.2219218508010482e-17  2.2218636733997405e-17  2.2217356083569696e-17  2.2218999334766974e-17  2.2219486915353739e-17  2.2218956258281197e-17  2.2218499627544053e-17  2.2216731372182839e-17  2.2218022970333751e-17  2.2218578558740477e-17  2.2217688199470596e-17  2.2218596584014422e-17  2.2217290480971386e-17  2.2219031461908931e-17  2.2218135366195922e-17  2.2220816038169441e-17  2.2218222517926904e-17  2.2218054886463536e-17  2.2218556475214508e-17  2.2218775595574637e-17  2.2218662894747825e-17  2.2216958235638087e-17  2.2221039342051112e-17  2.2218971684294260e-17  2.2218442903363092e-17  2.2218337853720781e-17  2.2218891445218940e-17  2.2218021654967859e-17  2.2218717421478323e-17  2.2217866526973245e-17  2.2217967602009622e-17  2.2220472539291324e-17  2.2218118633657872e-17  2.2217755666607794e-17  2.2218684529328412e-17  2.2218426961027353e-17  2.2220473386984696e-17  2.2219452985356459e-17  2.2218124176979549e-17  2.2216750312318916e-17  2.2217973702334440e-17  2.2218638344400274e-17  2.2218136272155981e-17  2.2217826126131653e-17  2.2218500990211568e-17  2.2218082998022456e-17  2.2218114003440681e-17  2.2218178278748570e-17  2.2218220462321123e-17  2.2219160875300195e-17  2.2215673193038519e-17  2.2218981163035486e-17  2.2217784668325406e-17  2.2219147148254093e-17  2.2222991743619319e-17  2.2216867021840680e-17  2.2218736772286621e-17  2.2218900913166061e-17  2.2218883385360338e-17  2.2218861762014524e-17  2.2218656035875363e-17  2.2220533188767654e-17  2.2218560964159654e-17  2.2218207363966215e-17  2.2218207881775216e-17  2.2218920130528627e-17  2.2218538317052928e-17  2.2217536919099291e-17  2.2218524239634299e-17  2.2217957562416488e-17  2.2219406995994749e-17  2.2218416590887156e-17  2.2217856259290906e-17  2.2218106102951532e-17  2.2218184377921495e-17  2.2217956018246331e-17  2.2218736866274326e-17  2.2219172718944004e-17  2.2218042600113606e-17  2.2220120546043113e-17  2.2216907391679213e-17  2.2217927933304788e-17  2.2218550066978589e-17  2.2219136496989886e-17  2.2219836808486899e-17  2.2218662770492341e-17  2.2218118693353926e-17  2.2216266944744056e-17  2.2218079622866926e-17  2.2218406326447910e-17  2.2218256880738436e-17  2.2218308336681210e-17  2.2218598266935376e-17  2.2220902419720064e-17  2.2215892039054938e-17  2.2218331295032389e-17  2.2215446799908087e-17  2.2219613937538327e-17  2.2218495562633153e-17  2.2219539136750843e-17  2.2217507048511074e-17  2.2217639398143053e-17  2.2218939013428181e-17  2.2220422736179730e-17  2.2218215290489238e-17  2.2217962778714422e-17  2.2217266413459902e-17  2.2219758516421359e-17  2.2220189514537122e-17  2.2218748832350969e-17  2.2218993815697599e-17  2.2218403393701245e-17  2.2218411230881552e-17  2.2218120673859690e-17  2.2219190160686161e-17  2.2221547214090507e-17  2.2218247443316984e-17  2.2219131703446348e-17  2.2219603403355479e-17  2.2220255200862362e-17  2.2218922068261829e-17  2.2218371037225538e-17  2.2216670917746256e-17  2.2218221887639866e-17  2.2217692769362448e-17  2.2218494244299880e-17  2.2219206383450042e-17  2.2218864547169409e-17  2.2218622608468395e-17  2.2218685227044901e-17  2.2214475464689579e-17  2.2218383650165137e-17  2.2217373512157551e-17  2.2219799628276378e-17  2.2218631997534788e-17  2.2218128930940688e-17  2.2218522138448298e-17  2.2218180244164704e-17  2.2218708189345395e-17  2.2218411799231115e-17  2.2217424789659378e-17  2.2219140023632185e-17  2.2219911170028811e-17  2.2218330538746259e-17  2.2217694139561424e-17  2.2219651383843486e-17  2.2218102982428466e-17  2.2218585628422109e-17  2.2218716401606670e-17  2.2218532824895781e-17  2.2218481115111734e-17  2.2217005420105666e-17  2.2220620324785744e-17  2.2218518629205950e-17  2.2218843526180322e-17  2.2218359757267564e-17  2.2219191656529337e-17  2.2220889175380610e-17  2.2218129659711803e-17  2.2218586049101735e-17  2.2216739466216651e-17  2.2218053081025457e-17  2.2218755586678453e-17  2.2222130314990550e-17  2.2218745651723854e-17  2.2218625290015888e-17  2.2218351373749635e-17  2.2218670971013485e-17  2.2217130561545011e-17  2.2220198094001836e-17  2.2217526801041836e-17  2.2218086491410197e-17  2.2218089277544983e-17  2.2218668363081404e-17  2.2217492126994395e-17  2.2218814904174648e-17  2.2220466596694097e-17  2.2218283140854081e-17  2.2218258016550629e-17  2.2218914019405954e-17  2.2219660454217521e-17  2.2217085884466861e-17  2.2220302110811391e-17  2.2219014496181943e-17  2.2218532579223368e-17  2.2218120330494740e-17  2.2217737969277647e-17  2.2218490666877375e-17  2.2218775289709484e-17  2.2217394868919865e-17  2.2217772558479671e-17  2.2219107604192900e-17  2.2215733984946824e-17  2.2225610870147676e-17  2.2218306316937440e-17  2.2218766357706354e-17  2.2218195581277870e-17  2.2218422442202945e-17  2.2218580863291269e-17  2.2218532700104928e-17  2.2220485359880239e-17  2.2220772756877088e-17  2.2217195332460027e-17  2.2218381340317787e-17  2.2218606931057635e-17  2.2217197714056839e-17  2.2218254200045495e-17  2.2218543813735719e-17  2.2218581234188691e-17  2.2219231701394903e-17  2.2217407886540385e-17  2.2218696930714797e-17  2.2218285812647833e-17  2.2217005436964819e-17  2.2220707520830010e-17  2.2219209107302315e-17  2.2219284546492894e-17  2.2219803686752068e-17  2.2219638352370338e-17  2.2218346242670394e-17  2.2220602384812894e-17  2.2218557982140379e-17  2.2218085471903610e-17  2.2218308716129964e-17  2.2218757442747233e-17  2.2218592327911668e-17  2.2219490227002780e-17  2.2218535468101377e-17  2.2218330894583655e-17  2.2214689923848925e-17  2.2218385835974802e-17  2.2218498608949716e-17  2.2218265346040722e-17  2.2218301119819306e-17  2.2219389319158237e-17  2.2217644711086993e-17  2.2218530656282526e-17  2.2218647184096010e-17  2.2219517762319459e-17  2.2216708574204447e-17  2.2220175943261199e-17  2.2219176744892746e-17  2.2214625813667913e-17  2.2221662859481585e-17  2.2218358240746436e-17  2.2220776918243089e-17  2.2220037556845767e-17  2.2220187155807190e-17  2.2214428784417535e-17  2.2221757038396816e-17  2.2219608152390104e-17  2.2219596410831722e-17  2.2217547698344802e-17  2.2220604411375578e-17  2.2217783316639905e-17  2.2218659040274157e-17  2.2221119124478721e-17  2.2215160815969984e-17  2.2217885730442907e-17  2.2219495082611414e-17  2.2218856642479251e-17  2.2219129037389029e-17  2.2219716704722573e-17  2.2220182507665378e-17  2.2218501931793947e-17  2.2217066684265868e-17  2.2218261356605734e-17  2.2218730770266241e-17  2.2222171427099893e-17  2.2213968529730833e-17  2.2218200611355878e-17  2.2221303401884668e-17  2.2217070478705672e-17  2.2218766259114743e-17  2.2216235820999527e-17  2.2218121808420762e-17  2.2219072065386684e-17  2.2218933189903304e-17  2.2218006725630841e-17  2.2216027742816016e-17  2.2218452344312823e-17  2.2218299161415166e-17  2.2217998984351165e-17  2.2217758271780933e-17  2.2218182216359972e-17  2.2218464666191070e-17  2.2215891290032920e-17  2.2218794542431498e-17  2.2219929229508464e-17  2.2219117235547668e-17  2.2214721782153135e-17  2.2220308649035459e-17  2.2218379281773552e-17  2.2219762683187942e-17  2.2218609161056036e-17  2.2218628421590658e-17  2.2218070585474204e-17  2.2219530031925311e-17  2.2218752250155533e-17  2.2218289753966391e-17  2.2218724405171824e-17  2.2219970788735510e-17  2.2216750570882305e-17  2.2218030736279108e-17  2.2217016523556022e-17  2.2220285339570216e-17  2.2216914749340980e-17  2.2217162417654273e-17  2.2218125667316301e-17  2.2222636362450024e-17  2.2216844577836654e-17  2.2219600397852215e-17  2.2218433178818235e-17  2.2218958782535912e-17  2.2214180617899137e-17  2.2219258202173894e-17  2.2217808220725834e-17  2.2219216819486163e-17  2.2216793100153949e-17  2.2217994811825771e-17  2.2217953978581497e-17  2.2217798193887546e-17  2.2215583553942366e-17  2.2220171566350030e-17  2.2217628939345644e-17  2.2219081169960086e-17  2.2217828750706369e-17  2.2217206423798289e-17  2.2220167423598323e-17  2.2219480318067104e-17  2.2221303964149324e-17  2.2216672543430612e-17  2.2216911081760866e-17  2.2222099552168738e-17  2.2217928533497393e-17  2.2217687446227007e-17  2.2219907017391250e-17  2.2218284536537844e-17  2.2218130543695414e-17  2.2219545591868374e-17  2.2217580680363967e-17  2.2217504825323463e-17  2.2219245466785185e-17  2.2222784190711583e-17  2.2218964427324018e-17  2.2218615973510585e-17  2.2219868695599982e-17  2.2216547334284800e-17  2.2218261479677104e-17  2.2216723541975064e-17  2.2218223532210742e-17  2.2217724174355309e-17  2.2222670770289009e-17  2.2218526322478005e-17  2.2217178097664007e-17  2.2218726068513854e-17  2.2217609925826169e-17  2.2218145415848857e-17  2.2220483878023808e-17  2.2220583758070469e-17  2.2218607502766339e-17  2.2217306247817461e-17  2.2218023463179255e-17  2.2218623409030825e-17  2.2220680673123887e-17  2.2217848243888207e-17  2.2214586435639671e-17  2.2219279556138544e-17  2.2218737832820946e-17  2.2219025063483280e-17  2.2218765637435450e-17  2.2219894403222165e-17  2.2220742235619852e-17  2.2222216043902448e-17  2.2222006034347335e-17  2.2221925669916867e-17  2.2220631628896201e-17  2.2220880850713346e-17  2.2222397805037582e-17  2.2214572312573700e-17  2.2218049803096519e-17  2.2216913414233751e-17  2.2219201302524429e-17  2.2217595176339078e-17  2.2220546979650485e-17  2.2220585379533659e-17  2.2219501862805684e-17  2.2222556970931889e-17  2.2216606727835559e-17  2.2218519846997841e-17  2.2218822196198683e-17  2.2217386260834560e-17  2.2220681764934149e-17  2.2218314500089275e-17  2.2220039193763179e-17  2.2218483286274569e-17  2.2218422980909078e-17  2.2218291495136958e-17  2.2217069477962468e-17  2.2219165942951216e-17  2.2219228267244721e-17  2.2218227507608492e-17  2.2219063532407901e-17  2.2217232453379137e-17  2.2218232381504286e-17  2.2218853455353821e-17  2.2218634039137557e-17  2.2221304205863827e-17  2.2213138595213026e-17  2.2216827702023862e-17  2.2216176591001232e-17  2.2217802245657623e-17  2.2218799969845740e-17  2.2218114463842394e-17  2.2213850300141355e-17  2.2223078368857013e-17  2.2219800937444989e-17  2.2217918492834247e-17  2.2218093755060483e-17  2.2218007230471360e-17  2.2218799989643453e-17  2.2220158900555505e-17  2.2218300950990681e-17  2.2214708560224925e-17  2.2213830861337068e-17  2.2220402576474076e-17  2.2218378195084076e-17  2.2220138658917350e-17  2.2219486365460644e-17  2.2218551327683216e-17  2.2220351696231080e-17  2.2218109894590201e-17  2.2218527002227703e-17  2.2218282365087198e-17  2.2218466011961560e-17  2.2219279458208531e-17  2.2219481823403269e-17  2.2219968620821734e-17  2.2216485858013036e-17  2.2217777944546826e-17  2.2218083989781166e-17  2.2218592250374693e-17  2.2218653484089933e-17  2.2218242097060027e-17  2.2219328715421337e-17  2.2220259544054272e-17  2.2217942206032846e-17  2.2220024490896251e-17  2.2218618238272355e-17  2.2217010646907317e-17  2.2219893925230290e-17  2.2220358925481037e-17  2.2221883750806558e-17  2.2220015694868909e-17  2.2219258495654054e-17  2.2220109406171604e-17  2.2218204263473566e-17  2.2218483971043687e-17  2.2221392996112949e-17  2.2213459647965001e-17  2.2217203123517840e-17  2.2218571386815683e-17  2.2220002143670367e-17  2.2217276290621564e-17  2.2218420857052327e-17  2.2218265228606478e-17  2.2218667003927233e-17  2.2217963412546062e-17  2.2219391795413200e-17  2.2218145993136327e-17  2.2220463784421209e-17  2.2216916732905577e-17  2.2218691063880144e-17  2.2218363042977164e-17  2.2218216507665753e-17  2.2217265715212429e-17  2.2219788086997928e-17  2.2219637038071331e-17  2.2218723807542774e-17  2.2218014275240472e-17  2.2220334597406124e-17  2.2216428938848897e-17  2.2213852807085913e-17  2.2218536189904301e-17  2.2219052205593402e-17  2.2219287157719807e-17  2.2216475263008451e-17  2.2217039444327204e-17  2.2218603337790736e-17  2.2217876786300034e-17  2.2219326241307836e-17  2.2219198784916114e-17  2.2216363295325345e-17  2.2218924989550773e-17  2.2220017625520115e-17  2.2217747744307873e-17  2.2219224270940047e-17  2.2219866675865481e-17  2.2217521436460812e-17  2.2218895762098028e-17  2.2218706506699565e-17  2.2220535979494742e-17  2.2216357107826799e-17  2.2220193372934150e-17  2.2217972388281764e-17  2.2221474223087989e-17  2.2217368290536495e-17  2.2219784015498606e-17  2.2218106100535725e-17  2.2218388835367789e-17  2.2220295726220024e-17  2.2218753332695145e-17  2.2219758622459327e-17  2.2217304343544891e-17  2.2219357481499550e-17  2.2217307900158271e-17  2.2220320861107787e-17  2.2216977166117280e-17  2.2222541746383682e-17  2.2216377672252625e-17  2.2218524984706798e-17  2.2218359459056497e-17  2.2218895713840149e-17  2.2219844335776114e-17  2.2217276760723647e-17  2.2213584386365341e-17  2.2219019264717142e-17  2.2216721047208725e-17  2.2217258718881906e-17  2.2219648990547056e-17  2.2214949796799927e-17  2.2221406079849417e-17  2.2218304197702098e-17  2.2218964662473722e-17  2.2218570437945418e-17  2.2219825938081740e-17  2.2218168830450048e-17  2.2219094353416778e-17  2.2218905363242443e-17  2.2220612975751160e-17  2.2218465970044203e-17  2.2217393766544735e-17  2.2218877731809217e-17  2.2216041325541966e-17  2.2217283327522738e-17  2.2218911476770346e-17  2.2216294299200777e-17  2.2218200333758209e-17  2.2220658625406417e-17  2.2218690052247970e-17  2.2219154188523573e-17  2.2212476722771982e-17  2.2217368998312058e-17  2.2218120643374373e-17  2.2220826437848948e-17  2.2218752395826791e-17  2.2212039655633058e-17  2.2220977533665887e-17  2.2217958589690523e-17  2.2219859080079677e-17  2.2217861888923198e-17  2.2220121683081232e-17  2.2218906621621362e-17  2.2217796105520584e-17  2.2220945491166475e-17  2.2221610747125067e-17  2.2222083498854385e-17  2.2221611231653739e-17  2.2220542148746642e-17  2.2212177905747344e-17  2.2219249849999633e-17  2.2219351889802654e-17  2.2219289895895501e-17  2.2217304500682400e-17  2.2218879499999986e-17  2.2218698444988854e-17  2.2219953562198540e-17  2.2216410048764555e-17  2.2216337472445943e-17  2.2215403133664675e-17  2.2218959785617302e-17  2.2218476859088972e-17  2.2218575201050780e-17  2.2218405674617420e-17  2.2219085180771607e-17  2.2219924269889928e-17  2.2219327915200955e-17  2.2217052107687557e-17  2.2219276964936930e-17  2.2218738142198705e-17  2.2218613728041481e-17  2.2218529251893248e-17  2.2218445782792969e-17  2.2217372468890841e-17  2.2218532107162873e-17  2.2218580766024951e-17  2.2218317743446