<?xml version="1.0"?>
<VTKFile type="UnstructuredGrid"  version="0.1"  >
<UnstructuredGrid>
<Piece  NumberOfPoints="5911" NumberOfCells="27301">
<Points>
<DataArray  type="Float64"  NumberOfComponents="3"  format="ascii">-44.707341 -27.664765 -10.627894  -43.4075455 -26.998254 -10.59420075  -43.939212 -26.4658265 -10.5949615  -43.938485 -26.9984425 -10.0630725  -43.169629 -26.33212 -9.498251  -42.6386895 -26.3319315 -10.02937925  -43.170356 -25.799504 -10.03014  -43.171083 -25.266888 -10.562029  -42.6394165 -25.7993155 -10.56126825  -42.10775 -26.331743 -10.5605075  -44.1764015 -27.6645765 -11.15902225  -43.64546199999999 -27.664388 -11.6901505  -42.876606 -26.9980655 -11.125329  -43.4082725 -26.465638 -11.12608975  -44.708068 -27.132149 -11.159783  -44.70879499999999 -26.599533 -11.691672  -43.939939 -25.9332105 -11.1268505  -44.17712849999999 -27.1319605 -11.69091125  -44.710249 -25.534301 -12.75545  -43.94066599999999 -25.4005945 -11.6587395  -44.1785825 -26.0667285 -12.75468925  -44.70952199999999 -26.066917 -12.223561  -43.40899949999999 -25.933022 -11.65797875  -44.17785549999999 -26.5993445 -12.22280025  -43.646916 -26.599156 -12.7539285  -42.583583 -27.664011 -12.752407  -42.34566649999999 -26.997877 -11.65645725  -42.87733299999999 -26.4654495 -11.657218  -43.11452249999999 -27.6641995 -12.22127875  -43.1152495 -27.1315835 -12.75316775  -43.64618899999999 -27.131772 -12.2220395  -41.631917 -24.999475 -8.368608  -41.8698335 -25.665609 -9.464557750000001  -42.4015 -25.1331815 -9.465318499999999  -42.400773 -25.6657975 -8.933429499999999  -48.948592 -31.923619 2.127788  -48.17007775 -30.7021315 2.12779  -48.41646625 -31.39196125 3.1915715  -48.948573 -31.391689 2.659737  -48.948554 -30.859759 3.191686  -46.3289 -31.6086125 -1.0624875  -46.576702 -32.29821925 -2.12507875  -47.10805775 -32.29808975 -1.5938525  -46.5760445 -32.83022425 -1.59373125  -47.8872155 -32.987567 -2.1252175  -47.35585975 -32.9876965 -2.65644375  -47.35520225 -33.5197015 -2.12509625  -46.824504 -32.987826 -3.18767  -46.8238465 -33.519831 -2.6563225  -48.951242 -31.923298 -2.12546  -47.6407285 -31.23395025 -2.12532125  -48.17208425 -31.23382075 -1.594095  -47.64007100000001 -31.76595525 -1.59397375  -46.32955750000001 -31.0766075 -1.593835  -46.86091325 -31.076478 -1.06260875  -47.3929265 -30.5443435 -1.06273  -46.86157075 -30.544473 -1.59395625  -46.330215 -30.5446025 -2.1251825  -48.41988625 -31.9234275 -2.65668625  -47.10871525 -31.76608475 -2.1252  -47.10937275000001 -31.23407975 -2.6565475  -47.8885305 -31.923557 -3.1879125  -48.41922875 -32.4554325 -2.12533875  -47.887873 -32.455562 -2.656565  -46.825819 -31.923816 -4.250365  -47.35717475 -31.9236865 -3.71913875  -46.578017 -31.23420925 -3.18777375  -46.5773595 -31.76621425 -2.65642625  -47.35651725 -32.4556915 -3.18779125  -46.82516150000001 -32.455821 -3.719017500000001  -45.834611 -29.165389 0  -46.082413 -29.85499575 -1.06259125  -46.61376875000001 -29.85486625 -0.531365  -46.0817555 -30.38700075 -0.53124375  -48.95359 -29.794882 -4.251528  -48.174214 -29.11642 -3.709366  -48.69601425 -29.11533975 -3.188646  -48.17384525 -29.63750875 -3.188646  -47.3941005 -29.4801355 -2.125764  -47.39446925 -28.95904675 -2.646484  -47.9162695 -28.9579665 -2.125764  -48.4384385 -28.4357975 -2.125764  -47.91663825000001 -28.43687775 -2.646484  -47.394838 -28.437958 -3.167204  -45.83497975 -28.64430025 -0.52072  -46.35678 -28.64322 0  -46.61435575 -29.32276225 -1.062882  -46.6147245 -28.8016735 -1.583602  -47.13652475000001 -28.80059325 -1.062882  -46.87894900000001 -28.121051 0  -46.35714875000001 -28.12213125 -0.52072  -45.8353485 -28.1232115 -1.04144  -47.923287 -27.076713 0  -47.40148675 -27.07779325 -0.52072  -47.401118 -27.598882 0  -47.65869375 -28.27842425 -1.062882  -47.1368935 -28.2795045 -1.583602  -46.87931775000001 -27.59996225 -0.52072  -46.87968650000001 -27.0788735 -1.04144  -48.18086275 -27.75625525 -1.062882  -47.6590625 -27.7573355 -1.583602  -45.836086 -27.081034 -2.08288  -46.35788625000001 -27.07995375 -1.56216  -46.3575175 -27.6010425 -1.04144  -46.61509325 -28.28058475 -2.104322  -47.13726225000001 -27.75841575 -2.104322  -45.83571725 -27.60212275 -1.56216  -46.615462 -27.759496 -2.625042  -48.955862 -27.666013 -6.378125  -48.69795525000001 -26.4771885 -5.824856499999999  -48.698285 -26.998084 -5.303630999999999  -49.22991625 -26.46597725 -5.3041065  -49.50397049999999 -25.2659415 -4.230088  -48.9720095 -25.27715275 -4.750838  -48.97233925 -25.79804825 -4.2296125  -48.440708 -26.330155 -4.229137  -48.44037825 -25.8092595 -4.7503625  -48.4400485 -25.288364 -5.271587999999999  -47.925554 -24.994297 -2.080149  -48.18280125 -25.1413305 -3.6758685  -48.183131 -25.662226 -3.154643  -48.71476224999999 -25.13011925 -3.1551185  -51.079095 -29.794869 -2.126036  -50.2905865 -28.583209 -2.12620425  -50.290143 -29.11533 -1.594527  -49.75876675000001 -29.11533325 -2.1259  -48.97025825 -27.90367325 -2.12606825  -48.96981475 -28.43579425 -1.594391  -49.50119100000001 -28.435791 -1.063018  -49.5016345 -27.90367 -1.59469525  -49.502078 -27.371549 -2.1263725  -51.0795385 -29.262748 -2.65771325  -50.54816225 -29.26275125 -3.18908625  -50.0172295 -28.7306335 -4.252136500000001  -50.54860575 -28.73063025 -3.7207635  -49.75965375 -28.05109125 -3.189254500000001  -50.29103 -28.051088 -2.6578815  -51.079982 -28.730627 -3.1893905  -50.54771875 -29.79487225 -2.657409  -49.75921025 -28.58321225 -2.65757725  -49.2273905 -29.1153365 -2.657273  -50.0163425 -29.7948755 -3.188782  -50.016786 -29.2627545 -3.72045925  -49.227834 -28.5832155 -3.18895025  -49.48496625 -29.79487875 -3.720155  -49.48540975 -29.26275775 -4.251832250000001  -51.080869 -27.666385 -4.252745  -51.0804255 -28.198506 -3.72106775  -50.2914735 -27.518967 -3.18955875  -50.54904925 -28.19850925 -4.25244075  -48.7126825 -27.224131 -1.06318625  -48.712239 -27.756252 -0.531509  -42.586667 -25.532975 -14.880358  -41.82276425 -25.39975575 -13.77748  -42.34449725 -24.88085725 -13.7746455  -42.34372625 -25.41361625 -13.24265775  -42.1007855 -25.2942575 -11.6049575  -41.5798235 -25.280397 -12.13977975  -42.1015565 -24.7614985 -12.13694525  -42.1023275 -24.2287395 -12.668933  -41.5805945 -24.747638 -12.6717675  -41.0588615 -25.2665365 -12.674602  -42.585896 -26.065734 -14.34837025  -42.585125 -26.598493 -13.8163825  -41.82199325 -25.93251475 -13.24549225  -42.34295525 -25.94637525 -12.71067  -41.82122225 -26.46527375 -12.7135045  -42.34218425 -26.47913425 -12.17868225  -41.0573195 -26.3320545 -11.6106265  -39.531056 -25.000098 -10.468846  -40.29495875 -25.13331725 -11.571724  -40.81592075 -25.14717775 -11.03690175  -42.584354 -27.131252 -13.28439475  -41.617988 -22.924504 -10.457508  -41.33842475 -24.09552025 -11.566055  -41.85938675 -24.10938075 -11.03123275  -40.574522 -23.962301 -10.463177  -41.86015775 -23.57662175 -11.5632205  -46.05689875 -31.2336815 -3.70941975  -46.05923425 -31.752992 -3.18777375  -45.80909675 -30.54407475 -2.6468285  -45.81143225 -31.06338525 -2.1251825  -45.2926495 -31.582168 -2.1251825  -45.290314 -31.0628575 -2.6468285  -45.2879785 -30.543547 -3.1684745  -44.7923745 -29.1643335 -1.043292  -44.27359175 -29.68311625 -1.043292  -45.042512 -30.37325075 -1.58423725  -44.27592725 -30.20242675 -0.5216460000000001  -44.52372925 -30.8920335 -1.58423725  -44.52606475 -31.411344 -1.06259125  -43.754809 -30.201899 -1.043292  -45.56363025 -30.3737785 -1.06259125  -45.31349275 -29.16486125 -0.5216460000000001  -45.56129475 -29.854468 -1.58423725  -43.750138 -29.163278 -2.086584  -43.7524735 -29.6825885 -1.564938  -44.52139375 -30.372723 -2.10588325  -44.27125625 -29.16380575 -1.564938  -45.0401765 -29.85394025 -2.10588325  -44.51905825 -29.8534125 -2.62752925  -40.447373 -34.054804 -8.497823  -40.224992 -32.83013725 -7.9448705  -38.960555 -32.643369 -7.3960755  -40.0087605 -32.647081 -6.344158500000001  -39.570148 -31.239358 -4.190494  -39.7863795 -31.42241425 -5.791206000000001  -38.5219425 -31.235646 -5.242411000000001  -37.473737 -31.231934 -6.294328  -38.738174 -31.41870225 -6.843123  -40.002611 -31.6054705 -7.391918  -39.5639985 -30.1977475 -5.2382535  -38.515793 -30.1940355 -6.2901705  -39.557849 -29.156137 -6.286013  -39.78023 -30.38080375 -6.8389655  -42.575943 -31.924835 -8.499222  -41.82449425 -31.75346575 -7.42204  -41.289277 -31.76515275 -7.94557  -41.066896 -30.540486 -7.3926175  -40.31544725000001 -30.36911675 -6.3154355  -40.53782825 -31.5937835 -6.868388  -41.07304550000001 -31.5820965 -6.344858  -42.0438005 -32.45732725 -8.49887225  -41.29235175 -32.28595799999999 -7.42169025  -40.7571345 -32.297645 -7.94522025  -41.511658 -32.9898195 -8.4985225  -40.76020925 -32.81845025 -7.4213405  -40.32159675 -31.41072725 -5.267676  -40.9795155 -33.52231175 -8.49817275  -42.34557700000001 -31.2336125 -7.4208105  -40.83653 -29.8492635 -6.314206  -41.59412825 -31.06224325 -6.3436285  -42.115211 -30.54239 -6.342399  -40.83960475000001 -30.37006875 -5.79032625  -41.36376225000001 -30.37102075 -5.265217  -40.088156 -30.1986995 -4.71314425  -40.6123135 -30.1996515 -4.188035  -41.654479 -29.159945 -4.185576  -41.1303215 -29.158993 -4.71068525  -40.606164 -29.158041 -5.2357945  -40.0820065 -29.157089 -5.76090375  -41.884845 -29.8511675 -5.263987500000001  -41.3606875 -29.8502155 -5.789096750000001  -42.342748 -30.71322525 -7.94402675  -40.833701 -29.32887625 -6.837422249999999  -42.112382 -30.02200275 -6.86561525  -42.10955300000001 -29.5016155 -7.3888315  -41.65165 -28.63955775 -4.70879225  -41.88201600000001 -29.33078025 -5.78720375  -41.1274925 -28.63860575 -5.2339015  -41.35785850000001 -29.32982825 -6.312313  -41.879187 -28.810393 -6.310420000000001  -41.648821 -28.1191705 -5.2320085  -40.600506 -28.1172665 -6.282227  -41.643163 -27.078396 -6.278441  -41.876358 -28.29000575 -6.83363625  -41.1246635 -28.1182185 -5.75711775  -41.645992 -27.59878325 -5.75522475  -50.81065175000001 -26.99978875 -3.18955875  -50.29204025 -26.998363 -3.709596  -50.02125625 -26.85237075 -2.1263725  -49.50264475 -26.850945 -2.64640975  -49.5032115 -26.
[...]
<PointData  Scalars="c_HbO2"> 
<DataArray  type="Float64"  Name="c_HbO2"  format="ascii">2.2180599886042701e-17  2.2119656398739132e-17  2.2099440820823192e-17  2.2113409720460864e-17  2.2079195944813772e-17  2.2100400239071631e-17  2.2070334623820900e-17  2.2059066889733006e-17  2.2086471387552717e-17  2.2113587782812460e-17  2.2194121982413113e-17  2.2189616516185025e-17  2.2132110644060778e-17  2.2118323864591450e-17  2.2180627120745097e-17  2.2176154053012197e-17  2.2095053603443823e-17  2.2188285992903646e-17  2.2171071511633392e-17  2.2086794043623255e-17  2.2180924061192180e-17  2.2180862663424338e-17  2.2102167637872165e-17  2.2183446649733483e-17  2.2185395770765222e-17  2.2190741555569095e-17  2.2141935529953148e-17  2.2130001844024108e-17  2.2196729450583320e-17  2.2194130201627863e-17  2.2190857442053889e-17  2.2185100458870239e-17  2.2126898104511180e-17  2.2104376143490483e-17  2.2115586646648497e-17  2.2185256085600201e-17  2.2101625143371520e-17  2.2191972232433177e-17  2.2185208701054968e-17  2.2175907452099076e-17  2.2119508876070602e-17  2.2147785871402390e-17  2.2150522490098333e-17  2.2165530666213183e-17  2.2195777778183982e-17  2.2199118288079447e-17  2.2198146000996095e-17  2.2196412483172402e-17  2.2203365693122786e-17  2.2187970612588221e-17  2.2112880154964427e-17  2.2128784275006104e-17  2.2143009069111750e-17  2.2116539043493580e-17  2.2104257195933048e-17  2.2074168924571635e-17  2.2084657263349669e-17  2.2100258187586237e-17  2.2189792625429559e-17  2.2129006685569295e-17  2.2134823745183313e-17  2.2187033129093086e-17  2.2190247106187911e-17  2.2196750968678521e-17  2.2191813648162553e-17  2.2192282373631914e-17  2.2132881972571266e-17  2.2144305664678525e-17  2.2198166444932971e-17  2.2198392333354667e-17  2.2179864249337450e-17  2.2085527403213290e-17  2.2107053653183737e-17  2.2116975902555303e-17  2.2168034138777196e-17  2.2055853301448946e-17  2.2033425968345913e-17  2.2074490852314827e-17  2.2043054352910352e-17  2.2028748622460326e-17  2.1989215616766752e-17  2.1965336575469250e-17  2.1983938033474412e-17  2.2002079683272058e-17  2.2167776100851925e-17  2.2213806342273757e-17  2.2048839154375137e-17  2.2093277991477838e-17  2.2044013935853360e-17  2.2139303501829758e-17  2.2147950303157384e-17  2.2175370384348985e-17  2.2056602800647713e-17  2.2131699284069058e-17  2.2189654270209776e-17  2.2006161815600487e-17  2.2023327485913767e-17  2.2135558527606844e-17  2.2145945766355689e-17  2.1974833462786953e-17  2.2050473951860800e-17  2.2168085886221811e-17  2.2164634976002062e-17  2.2186154153292626e-17  2.2064444838086653e-17  2.2024632082677900e-17  2.2167872940675669e-17  2.2060811393261510e-17  2.2151364615395510e-17  2.1929856113637625e-17  2.1941455549389591e-17  2.1919318719645806e-17  2.1629093277609293e-17  2.1672639676831848e-17  2.1676596903487765e-17  2.1837459089196522e-17  2.1774127471330628e-17  2.1749218610881410e-17  2.1966240258963312e-17  2.1824758667673899e-17  2.1948020285865563e-17  2.2014874839110533e-17  2.2167370014291541e-17  2.1996932040600252e-17  2.2058116955687064e-17  2.2023150642029900e-17  2.1888517523037948e-17  2.1917806101339709e-17  2.1915641192980850e-17  2.1817289492311466e-17  2.1849190425183247e-17  2.2148524442033173e-17  2.2176258928838033e-17  2.2163686129513146e-17  2.2136953783563542e-17  2.1963616406362729e-17  2.1927706568474798e-17  2.2160648158402013e-17  2.2159300683473521e-17  2.2007855566531204e-17  2.2037237452137200e-17  2.2165352812073565e-17  2.2142878441763732e-17  2.2023515564755756e-17  2.2162716831545508e-17  2.2162891722951044e-17  2.2142860315484776e-17  2.2132453220767311e-17  2.1954411400460398e-17  2.2120675158406466e-17  2.1939491410525051e-17  2.2005839108901319e-17  2.2181420495268796e-17  2.2138455412513790e-17  2.2125563597841750e-17  2.2133278941665023e-17  2.2094625438902765e-17  2.2114329104479705e-17  2.2090670752617731e-17  2.2084205002822067e-17  2.2108554838712733e-17  2.2127880243074769e-17  2.2186131557321008e-17  2.2194099556803761e-17  2.2147714340681708e-17  2.2133418428958047e-17  2.2152363701510788e-17  2.2137262497251082e-17  2.2134938483186365e-17  2.2194795164589211e-17  2.2160836786239450e-17  2.2142284260447834e-17  2.2198495013313999e-17  2.2174805312210496e-17  2.2124651199115230e-17  2.2110934403796762e-17  2.2194570717510988e-17  2.2103284807313699e-17  2.2146042900892820e-17  2.2146712182685786e-17  2.2107993527284510e-17  2.2120815691105888e-17  2.2139525594516011e-17  2.2130628577222568e-17  2.2118033857875819e-17  2.2208884559637485e-17  2.2212792888709286e-17  2.2102812120851392e-17  2.2196209176769578e-17  2.2158974207346216e-17  2.2128789811519045e-17  2.2218977175016877e-17  2.2094763829649468e-17  2.2157423760703660e-17  2.2143833731476961e-17  2.2198703373103449e-17  2.2184584675466939e-17  2.2144961277280639e-17  2.2181111124152355e-17  2.2137264275422387e-17  2.2138542522610980e-17  2.2210984622650469e-17  2.2201172649046761e-17  2.2200144867630857e-17  2.2194884624203793e-17  2.2210203622535419e-17  2.2198118757363479e-17  2.2211493485030170e-17  2.2213815565133310e-17  2.2202295898341677e-17  2.2193398198328782e-17  2.2208595435682656e-17  2.2212399995126939e-17  2.2205723333061917e-17  2.2198092677248612e-17  2.2204010018052325e-17  2.2187171355890824e-17  2.2194613591346820e-17  2.2175193269806886e-17  2.2188650062013045e-17  2.2186368622094904e-17  2.2182377744065920e-17  2.2210614180771184e-17  2.2194382438916580e-17  2.2199002048173091e-17  2.2211157372830682e-17  2.2199779024063179e-17  2.2196593546114794e-17  2.2212757251822826e-17  2.2179484010283618e-17  2.2183695544579154e-17  2.2174710246309043e-17  2.2166594028790027e-17  2.2189086767868401e-17  2.2181852030860019e-17  2.2208982276114902e-17  2.2206956795372436e-17  2.2202313972650091e-17  2.2205171676513495e-17  2.2205742616236994e-17  2.2208298611241412e-17  2.2173477521334137e-17  2.2178583453787882e-17  2.2176904876432199e-17  2.2178666340443042e-17  2.2157661718227966e-17  2.2152355536079735e-17  2.2203575389979021e-17  2.2168190810836272e-17  2.2199847227762658e-17  2.2173607681734828e-17  2.2163262903918234e-17  2.2197496259034565e-17  2.2202190857845539e-17  2.2193769606214992e-17  2.2160588454997549e-17  2.2203038602232221e-17  2.2197140420089715e-17  2.1869778320636625e-17  2.1869897362327331e-17  2.1594021301145026e-17  2.1808257878008294e-17  2.1734695157833613e-17  2.1622056101036366e-17  2.1699734389886882e-17  2.2223004514293048e-17  1.9477224351595361e-17  2.1764581190059590e-17  2.1615167313560510e-17  2.2015171380243396e-17  2.1935718706378567e-17  2.2281263483801392e-17  2.1954800161350901e-17  2.1751585046075763e-17  2.3568524467373385e-17  2.1810031659223392e-17  2.1804251297870677e-17  2.2078091268546873e-17  2.1216246970087140e-17  2.2140882974556607e-17  2.2256573591257795e-17  2.2173636547902335e-17  2.1999053162524342e-17  2.1952859670835163e-17  2.2199193522151443e-17  2.1804803031057728e-17  2.2027010566238345e-17  2.2093840225703373e-17  2.2103567389498638e-17  2.2077622479678992e-17  2.2037546284182909e-17  2.2060817927198741e-17  2.2070823206170102e-17  2.2188006678927326e-17  2.2124577164529176e-17  2.2196789979337250e-17  2.2181567841613752e-17  2.2182367154295833e-17  2.2107020130012256e-17  2.2112117165226920e-17  2.2188915327470242e-17  2.2192793841590035e-17  2.2084813332962293e-17  2.2045216864192692e-17  2.2134997050357282e-17  2.2071183019165537e-17  2.2072536066756529e-17  2.1980860847934829e-17  2.1918257582139833e-17  2.2117191494959858e-17  2.2162098319581676e-17  2.1803024999767689e-17  2.2156073614552543e-17  2.1999899268392240e-17  2.2116784346492384e-17  2.2034883658604264e-17  2.2168715083257174e-17  2.2032130062489317e-17  2.2113586233931250e-17  2.2073125826383520e-17  2.1939804429270561e-17  2.1914419219634918e-17  2.1999886334636670e-17  2.2094802802528123e-17  2.1827764884764645e-17  2.1966565694412215e-17  2.1779356841706836e-17  2.2126332551139565e-17  2.2193736353160039e-17  2.2176486544873968e-17  2.2161894811757463e-17  2.2165053961523843e-17  2.2142739955664147e-17  2.2143620867723449e-17  2.2183546783278991e-17  2.2197915734072757e-17  2.2157323262028431e-17  2.2151672693568721e-17  2.2177899323254268e-17  2.2198708198024568e-17  2.2190006491433476e-17  2.2123643150092251e-17  2.2226226861357468e-17  2.2141906663278583e-17  2.2186906321078511e-17  2.2148438090063034e-17  2.2168355014343853e-17  2.2139767219723917e-17  2.2165859571617237e-17  2.2033298407370174e-17  2.2051023895844151e-17  2.2014632019442426e-17  2.1900692809575958e-17  2.1981904997127761e-17  2.1932229418304253e-17  2.1961982317934636e-17  2.1999753264180278e-17  2.1959864618132567e-17  2.2160267907339850e-17  2.2157085349546005e-17  2.2023009234889837e-17  2.1988192732220848e-17  2.2148273691798132e-17  2.2007487004722748e-17  2.1955450915446962e-17  2.1980963189394790e-17  2.1871828341892171e-17  2.1843813445925467e-17  2.1890003370502385e-17  2.2155838709028885e-17  2.2105119924603575e-17  2.2161036054642381e-17  2.1972952991386808e-17  2.1940442615966799e-17  2.2008167277689176e-17  2.1996164125418110e-17  2.2140834375404721e-17  2.1911534890812202e-17  2.2164846476013400e-17  2.2175229578029710e-17  2.2040484472994344e-17  2.2022333706011511e-17  2.2061108054759408e-17  2.2205577081860434e-17  2.2206836759737334e-17  2.2174960030255717e-17  2.2208894930820310e-17  2.2200003843243277e-17  2.2170406863895019e-17  2.2203404190906747e-17  2.2167212677634310e-17  2.2151734267148347e-17  2.2203125109439191e-17  2.2147899251145019e-17  2.2153192986072971e-17  2.2129915567419734e-17  2.2138114490194842e-17  2.2144883241206533e-17  2.2139121886678416e-17  2.2198554474454034e-17  2.2195299639807249e-17  2.2154190340975938e-17  2.2159961954570307e-17  2.2201652650714120e-17  2.2201150693052061e-17  2.2200131114982450e-17  2.2159868937759297e-17  2.2166776612591222e-17  2.2200034704457572e-17  2.2204347548552582e-17  2.2203283324988981e-17  2.2149991239198444e-17  2.2149986026113429e-17  2.2215572582693598e-17  2.2209970687338775e-17  2.2207607886306261e-17  2.2211824483989765e-17  2.2217945303228035e-17  2.2215991363989058e-17  2.2217044204353122e-17  2.2215812702937444e-17  2.2112092967127430e-17  2.1756515146686781e-17  2.1718467900450713e-17  2.1809309993204664e-17  2.1663309348366400e-17  2.1503051837169652e-17  2.1641749096379087e-17  2.1493991532661267e-17  2.1440160499676717e-17  2.1585490851124148e-17  2.1662458852186214e-17  2.2096912147990992e-17  2.2079326085132725e-17  2.1783093117217959e-17  2.1763658019631500e-17  2.1811620074527759e-17  2.2030963927946543e-17  2.2035378357189516e-17  2.2005074346708048e-17  2.1706708728159794e-17  2.1791976449857652e-17  2.2144248631449691e-17  2.2120377389577475e-17  2.1873551224599625e-17  2.1865155640671830e-17  2.2102647126943782e-17  2.2156407508258947e-17  2.2149930745791950e-17  2.2071689501910733e-17  2.2133011777261100e-17  2.2078775922216253e-17  2.1826250540311790e-17  2.1707426578633260e-17  2.1822262162721206e-17  2.2203292836217609e-17  2.2172559889880653e-17  2.2148801089103046e-17  2.2153450376019568e-17  2.2201785945160380e-17  2.2192951619642343e-17  2.2187855129748320e-17  2.2207681994685289e-17  2.2206248381239074e-17  2.2212202441768373e-17  2.2206297533424427e-17  2.2205033804188910e-17  2.2203240202535728e-17  2.2215255131868862e-17  2.2203359496617242e-17  2.2204210035336040e-17  2.2201659557705750e-17  2.2196746159484984e-17  2.2194048567288013e-17  2.2214449550110057e-17  2.2202801212193974e-17  2.2205077578794284e-17  2.2213457262557451e-17  2.2208620654171639e-17  2.2197413617437569e-17  2.2201534766944259e-17  2.2189005009711935e-17  2.2198690650937954e-17  2.2205002330945858e-17  2.2213122592087779e-17  2.2211094547604244e-17  2.2201883116098345e-17  2.2214484150312947e-17  2.2213685713343300e-17  2.2208369858175082e-17  2.2197925651741749e-17  2.2192319957913110e-17  2.2214709824521384e-17  2.2214473629138205e-17  2.2211177860328380e-17  2.2013208673067617e-17  2.2012174807157832e-17  2.2030113235197448e-17  2.2009598086261892e-17  2.1951902710431420e-17  2.1988014165952406e-17  2.1918662006416774e-17  2.1914087931367048e-17  2.2025293598748100e-17  2.1975274416973966e-17  2.2118214087618848e-17  2.2057017957659027e-17  2.2121062247641997e-17  2.2061194064462762e-17  2.2146523683547470e-17  2.2178369515249391e-17  2.2110718377033867e-17  2.2082322408819929e-17  2.2177931561959865e-17  2.2147408626130501e-17  2.2073091369985345e-17  2.2113444808370602e-17  2.2154212676616918e-17  2.1947725448179688e-17  2.1986969389689343e-17  2.2203513452906855e-17  2.2151855749497084e-17  2.2205266921736835e-17  2.2182189201000486e-17  2.2171400736597936e-17  2.2185127583264332e-17  2.2179457281019063e-17  2.2169350591892187e-17  2.2192128937503546e-17  2.2181603063769869e-17  2.2193096437860479e-17  2.2171249126880438e-17  2.2170988828412391e-17  2.2199206731609126e-17  2.2161247916548568e-17  2.2163822031051119e-17  2.2184366692667861e-17  2.2171977526377302e-17  2.2189753259097505e-17  2.2171428096632845e-17  2.2181719627404615e-17  2.2146616637223625e-17  2.2168802819421809e-17  2.2115199851855849e-17  2.2180241858069686e-17  2.2180411773245470e-17  2.2181276914324718e-17  2.2149908543801510e-17  2.2202957756325581e-17  2.2170108965441707e-17  2.2193052286155467e-17  2.2162299680464357e-17  2.2182438187599234e-17  2.2143280959120744e-17  2.2191427662847631e-17  2.2165300945934267e-17  2.2179278526171224e-17  2.2156725411357374e-17  2.2162696636615365e-17  2.2110302450318984e-17  2.2070813155154894e-17  2.2007541376376708e-17  2.2052506752446499e-17  2.2059407255740314e-17  2.2065390593049258e-17  2.1982148875059666e-17  2.1999737838399358e-17  2.2082033339520900e-17  2.1976091326859152e-17  2.2053500592220374e-17  2.2010010207290031e-17  2.2017927886009497e-17  2.2054770094826655e-17  2.1986587761650389e-17  2.2145006666501316e-17  2.2164928585412325e-17  2.2180370097939407e-17  2.2056528649746713e-17  2.2077309069967478e-17  2.2083314335442370e-17  2.2173333462760592e-17  2.2159212435913993e-17  2.2160426858800473e-17  2.2020672312937676e-17  2.2050588219817045e-17  2.2180963156406250e-17  2.2185076511664646e-17  2.2102425378431533e-17  2.2182500873353733e-17  2.2187610824634483e-17  2.2192462314224132e-17  2.2175102378167263e-17  2.2170309693739355e-17  2.2092666102945970e-17  2.2060209747198596e-17  2.1918555518065238e-17  2.1436256375054858e-17  2.1465222533945675e-17  2.1385662839100238e-17  2.3320429821106702e-17  2.2401894484133873e-17  2.1866135985697932e-17  2.1987785911498234e-17  2.2009650743056637e-17  2.2030473922727568e-17  2.2015296009890870e-17  2.1971509329147865e-17  2.2003388115069539e-17  2.1951908722464800e-17  2.1916671015706729e-17  2.2156451126897390e-17  2.2042777494166502e-17  2.2161985656533669e-17  2.2034542703126909e-17  2.2169751240496392e-17  2.2170779535189365e-17  2.2074930866804360e-17  2.2160543685052210e-17  2.2181170125995544e-17  2.2167068608747216e-17  2.2062285123403419e-17  2.2086233950057651e-17  2.2180283802548742e-17  2.2170954059866344e-17  2.2066933319057590e-17  2.2004360702013172e-17  2.2034591425173171e-17  2.2132828949299188e-17  2.1947303921713766e-17  2.1929169831717530e-17  2.1980195702577928e-17  2.1955285843022171e-17  2.1916408604330757e-17  2.1900009536518081e-17  2.1835610644876518e-17  2.1865012987701310e-17  2.1874683815894947e-17  2.2145452895004061e-17  2.1978269878175140e-17  2.2015426374726624e-17  2.2153702875242180e-17  2.2027392687680655e-17  2.2047532955868902e-17  2.1927981311174120e-17  2.1964192770777449e-17  2.2167998718289330e-17  2.1981262168371860e-17  2.2152599583202031e-17  2.2008422047349625e-17  2.1997682607959819e-17  2.2146671393971770e-17  2.1977664519175285e-17  2.2129638481745525e-17  2.1958766045100831e-17  2.2128140900763799e-17  2.1986604736545309e-17  2.1950339735707430e-17  2.2142124653155517e-17  2.2146500301294032e-17  2.2140524839395653e-17  2.1961171390728051e-17  2.1971589885006436e-17  2.1898842275318675e-17  2.2002794341435681e-17  2.2144162464545559e-17  2.2155951508928947e-17  2.2160339427086766e-17  2.2150016207653179e-17  2.2100071773672802e-17  2.2192141555758625e-17  2.2121545775070078e-17  2.2133155849364858e-17  2.2114598486759323e-17  2.2197449783672664e-17  2.2191634985012528e-17  2.2140909204185487e-17  2.2188553665607431e-17  2.2195877597669126e-17  2.2208664994462056e-17  2.2181560733441251e-17  2.2211015044812474e-17  2.2201838162069435e-17  2.2195373588885110e-17  2.2164583956206216e-17  2.2180435971992021e-17  2.2194000012648057e-17  2.2199287417782939e-17  2.2191526537471760e-17  2.2149532124815308e-17  2.2177887107713624e-17  2.2207344458205032e-17  2.2183459636539660e-17  2.2174904934216208e-17  2.2198714835448936e-17  2.2187607323094536e-17  2.2169832989135729e-17  2.2190316035860948e-17  2.2166875968957637e-17  2.2103320904106930e-17  2.2116950576413172e-17  2.2118917408267686e-17  2.2068762227797839e-17  2.2076129162570414e-17  2.2093306660198203e-17  2.2098818819152747e-17  2.2120092045902048e-17  2.2140128824745667e-17  2.2176572348877073e-17  2.2207020583656972e-17  2.2208489183766594e-17  2.2210872590059077e-17  2.1931279665905130e-17  2.1901074305688699e-17  2.1583128973331337e-17  2.1754846408682608e-17  2.2103456987684698e-17  2.1908876132266914e-17  2.1920458640378611e-17  2.2145607278093275e-17  2.2128415804017873e-17  2.2216054064328286e-17  2.2206817385098472e-17  2.2215714812495487e-17  2.2215230032934563e-17  2.2204103047111723e-17  2.2216366092822030e-17  2.2205088363588011e-17  2.2191149531080635e-17  2.2182790336302261e-17  2.2209599616717714e-17  2.2212507163443058e-17  2.2212793878247241e-17  2.2212454330860400e-17  2.2191547757172277e-17  2.2186465650655850e-17  2.2194391217930716e-17  2.2215147586196876e-17  2.2195481358082694e-17  2.2182006917680315e-17  2.2169306387543612e-17  2.2200614186186471e-17  2.2188049431068680e-17  2.2209619292625411e-17  2.2127746272549673e-17  2.2117053524789952e-17  2.2107169095631848e-17  2.2098133516700157e-17  2.2100819538323961e-17  2.2114708038822545e-17  2.2124834189599705e-17  2.2191936246925645e-17  2.2136003280746435e-17  2.2194186490246795e-17  2.2147931532048486e-17  2.2197721672478895e-17  2.2162208407997005e-17  2.2159064215747957e-17  2.2153232008408672e-17  2.2123791275024475e-17  2.2130817333898396e-17  2.2142621090992130e-17  2.2202673146385383e-17  2.2146408294860852e-17  2.2192371820893979e-17  2.2134918753678450e-17  2.2139907408693133e-17  2.2132696772438037e-17  2.2191774349182247e-17  2.2151967748588711e-17  2.2137653873682831e-17  2.2187398492982661e-17  2.2121932139302376e-17  2.2156568048100231e-17  2.2167674666400067e-17  2.2162469706321366e-17  2.2200182841664813e-17  2.2154502809760720e-17  2.2195343884119237e-17  2.2200077068092446e-17  2.2160893940783096e-17  2.2196561033362108e-17  2.2196807218467438e-17  2.2204036358019136e-17  2.2205508498863246e-17  2.2203178266836510e-17  2.2219176833814550e-17  2.2205399554629049e-17  2.2216990706873806e-17  2.2207392803356408e-17  2.2214195239110006e-17  2.2211779690980526e-17  2.2211788756016349e-17  2.2194507713564509e-17  2.2212564333240978e-17  2.2207867985832453e-17  2.2211662503883927e-17  2.2192706242890874e-17  2.2208933365690906e-17  2.2205492532836772e-17  2.2183603535354386e-17  2.2188532537894797e-17  2.2209369329816523e-17  2.2204770613000563e-17  2.1661608986902720e-17  2.1791196916483852e-17  2.1810648558976343e-17  2.1839955598640786e-17  2.1846067257858426e-17  2.1944972408929460e-17  2.2021611061305514e-17  2.2172763423805402e-17  2.1943820866360093e-17  2.1755510292352757e-17  2.1810554110900138e-17  2.1548993681820178e-17  2.1651781169296245e-17  2.1727397420828201e-17  2.1603832720987857e-17  2.1506222753147686e-17  2.2095503366124177e-17  2.2121989536599730e-17  2.1794200774666953e-17  2.1851925362310411e-17  2.2080403211163678e-17  2.2104202137491598e-17  2.2105926290528604e-17  2.1730184817174193e-17  2.2096872972566796e-17  2.2087782812655267e-17  2.1721004379475