<?xml version="1.0"?>
<VTKFile type="UnstructuredGrid"  version="0.1"  >
<UnstructuredGrid>
<Piece  NumberOfPoints="5958" NumberOfCells="26766">
<Points>
<DataArray  type="Float64"  NumberOfComponents="3"  format="ascii">50 -11.437198 8.318083  50.66666525 -12.7953785 7.892423  50.66666525 -11.6395585 8.006679500000001  50 -11.806723 7.67894175  50 -12.593018 8.2038265  50 -13.748838 8.08957  50 -12.962543 7.56468525  50 -12.176248 7.0398005  50.66666525 -12.0090835 7.36753825  51.3333305 -11.841919 7.695276  50.66666525 -12.4258535 8.531564249999999  50.66666525 -13.5816735 8.417307749999999  51.3333305 -13.414509 8.7450455  51.3333305 -12.628214 8.22016075  50 -12.915298 5.761518  50.66666525 -12.7481335 6.08925575  50.66666525 -12.3786085 6.728396999999999  50 -13.332068 6.925544  50.66666525 -13.1649035 7.25328175  51.3333305 -12.211444 7.05613475  51.3333305 -12.580969 6.4169935  50 -12.545773 6.40065925  52.666661 -12.24664 7.072469  51.99999575 -12.4138045 6.74473125  51.99999575 -12.0442795 7.3838725  51.3333305 -12.997739 7.5810195  51.99999575 -12.8305745 7.90875725  55.333333 -16.889556 7.749571  54.6655915 -17.0534175 6.58795125  53.99999975 -16.67435275 7.0095885  53.99999975 -17.3567995 7.37254575  52.66666650000001 -17.824043 6.9955205  53.33225825 -17.520661 6.210926  52.66666650000001 -17.14159625 6.63256325  52.66666650000001 -16.4591495 6.269606  53.33225825 -16.83821425 5.84796875  53.99785 -17.217279 5.4263315  50 -18.75853 6.24147  50.66559175 -18.455148 5.4568755  50 -18.07608325 5.87851275  51.33333325 -17.60883975 6.255538  51.998925 -17.30545775 5.4709435  51.33333325 -16.926393 5.89258075  50 -17.3936365 5.5155555  50.66559175 -17.77270125 5.09391825  51.3311835 -18.151766 4.672281  51.33333325 -18.2912865 6.61849525  51.998925 -17.9879045 5.83390075  50 -16.028743 4.789641  50.66559175 -16.40780775 4.36800375  50.66559175 -17.0902545 4.730961  51.33333325 -16.24394625 5.5296235  51.998925 -16.623011 5.10798625  51.3311835 -17.46931925 4.30932375  51.3311835 -16.7868725 3.9463665  50 -16.71118975 5.15259825  52.662367 -17.545002 3.103092  51.99677525 -17.16593725 3.52472925  51.99677525 -17.848384 3.8876865  52.66451675 -17.00207575 4.686349  52.66451675 -17.6845225 5.04930625  53.3301085 -17.3811405 4.26471175  55.333333 -15.798382 5.056653  55.333333 -16.391901 4.6046595  55.333333 -15.940497 4.17420275  54.6655915 -16.235037 4.568262750000001  53.99785 -16.671692 4.0798725  54.6655915 -16.828556 4.11626925  54.6655915 -16.377152 3.6858125  55.333333 -16.082612 3.2917525  55.333333 -16.534016 3.72220925  55.333333 -16.98542 4.152666  55.333333 -18.172458 3.248679  55.333333 -17.578939 3.7006725  55.333333 -17.127535 3.27021575  54.6655915 -17.422075 3.66427575  55.333333 -13.835585 2.928583  55.333333 -14.46839925 2.57815025  55.333333 -14.9590985 3.11016775  54.6655915 -14.76293925 2.97221025  55.333333 -15.59191275 2.759735  55.333333 -15.1012135 2.2277175  55.333333 -14.32628425 3.4606005  53.99785 -15.6902935 3.0158375  54.6655915 -15.2536385 3.50422775  54.6655915 -15.88645275 3.153795  55.333333 -15.44979775 3.64218525  55.333333 -14.8169835 3.992618  54.6655915 -15.74433775 4.03624525  53.99785 -16.18099275 3.547855  55.333333 -15.30768275 4.5246355  48.949095 -27.666407 6.384499  47.6351315 -27.0011225 6.36374675  47.63504875 -27.53323625 5.8317155  48.4171645 -27.66631325 6.91652325  47.885234 -27.6662195 7.4485475  47.103201 -27.00102875 6.895771  47.10311824999999 -27.5331425 6.36373975  46.3210025 -27.4000655 5.278931999999999  46.32108525 -26.86795175 5.810963249999999  46.321168 -26.335838 6.3429945  47.88515125 -28.19833325 6.91651625  47.35322075 -28.1982395 7.4485405  46.8212075 -28.7302595 7.4485335  46.571105 -28.0651625 6.36373275  48.41708175 -28.198427 6.384492  47.8850685 -28.730447 6.384485  47.353138 -28.73035325 6.91650925  46.821042 -29.794487 6.384471  46.57102225 -28.59727625 5.831701499999999  46.82112475 -29.26237325 6.91650225  47.35305525 -29.262467 6.384478  46.821373 -27.666032 8.512596  46.5712705 -27.000935 7.42779525  46.57118775 -27.53304875 6.895764  47.3533035 -27.66612575 7.98057175  46.82129025 -28.19814575 7.98056475  44.694266 -27.665164 10.64057  44.4501625 -27.0013315 9.548506  43.92758975 -27.5223945 9.55001575  43.1539795 -26.3407465 9.505274  41.613693 -25.016329 8.369978  42.909876 -25.676914 8.413209999999999  42.38730325 -26.197977 8.41471975  43.1609135 -27.379625 8.4594615  43.68348625 -26.858562 8.457951749999999  44.206059 -26.337499 8.456441999999999  41.627561 -27.094086 6.278353  43.43938275 -26.1947295 7.36588775  42.14666675 -26.05358375 6.7997495  42.39423725 -27.2368555 7.368907249999999  42.6727065 -26.05196 6.2753335  43.717852 -25.009834 6.272314  43.19181225 -25.01145775 6.79673  42.913343 -26.19635325 7.890303749999999  42.6657725 -25.0130815 7.321146  41.620627 -26.0552075 7.324165499999999  42.13973275 -25.01470525 7.845561999999999  43.9619555 -25.6736665 7.364377999999999  43.43591575 -25.67529025 7.888793999999999  42.566276 -29.793175 10.64055  41.0451735 -27.3818605 10.572966  41.0445485 -28.4464805 9.508971499999999  42.0899845 -27.404752 9.505264  42.566901 -28.728555 11.7045445  42.567526 -27.663935 12.768539  42.0906095 -26.340132 10.5692585  40.568257 -26.0580575 8.373685500000001  39.522821 -27.099786 8.377393  41.037349 -26.3442045 11.6184465  40.5604325 -25.0204015 9.419166000000001  39.5149965 -26.06213 9.4228735  39.507172 -25.024474 10.468354  51.077355 -23.40996 8.512684  49.75452725 -23.29846325 7.94700875  49.75458725 -22.76635775 8.479054250000001  50.2865055 -22.7664655 7.947028  49.495656 -22.122971 7.381372000000001  48.4317595 -22.654861 7.913379  48.96367775 -22.65496875 7.38135275  48.96373775 -22.12286325 7.91339825  48.4318195 -22.1227555 8.4454245  48.4316995 -23.1869665 7.3813335  50.0134585 -23.94185 9.044691  50.54537675 -23.94195775 8.512664749999999  50.01339849999999 -24.4739555 8.5126455  48.69063075 -23.83035325 8.47901575  49.222549 -23.830461 7.9469895  49.48148025 -24.47384775 9.044671749999999  48.949562 -24.47374 9.576698  50.54543675 -23.40985225 9.04471025  50.0135185 -23.4097445 9.576736499999999  49.22260900000001 -23.2983555 8.479035  49.222669 -22.76625 9.011080499999998  49.48154025 -23.94174225 9.57671725  48.949682 -23.409529 10.640789  48.69069075 -23.29824775 9.011061250000001  48.69075075000001 -22.76614225 9.54310675  49.48160025 -23.40963675 10.10876275  48.94962200000001 -23.9416345 10.1087435  48.949442 -25.537951 8.512606999999999  48.69057075 -24.36245875 7.94697025  48.949502 -25.0058455 9.0446525  49.48142025 -25.00595325 8.51262625  47.913957 -20.835982 6.25006  48.17282825 -22.01147425 6.815696750000001  48.17288825 -21.47936875 7.34774225  48.7048065 -21.4794765 6.815716  55.333333 -12.920527 5.74978  54.66660475 -13.05301 5.404498500000001  54.66660475 -13.77247375 5.23121675  54.666665 -13.471519 5.907170499999999  53.999997 -14.022511 6.064560999999999  53.9998765 -13.90495675 4.88593525  53.99993675 -13.604002 5.561889  53.99993675 -14.32346575 5.38860725  53.9998765 -14.6244205 4.7126535  53.9998765 -13.185493 5.059217  55.333333 -13.63999075 5.57649825  54.666665 -14.19098275 5.73388875  55.333333 -14.3594545 5.4032165  54.66660475 -14.4919375 5.057935000000001  54.666665 -12.75205525 6.08045225  53.999997 -13.30304725 6.23784275  53.999997 -12.5835835 6.4111245  53.99993675 -12.88453825 5.73517075  54.66660475 -15.21140125 4.88465325  55.333333 -15.07891825 5.22993475  54.666665 -14.9104465 5.560606999999999  52.66660075 -12.54759475 6.39651525  53.333329 -12.41511175 6.74179675  53.333329 -13.1345755 6.568515  53.33326875 -13.43553025 5.89256125  53.33326875 -12.7160665 6.065843  52.6665405 -12.8485495 5.720561500000001  52.66642 -13.450459 4.368654  52.66648025 -13.14950425 5.044607750000001  53.3332085 -13.01702125 5.38988925  53.3332085 -13.736485 5.2166075  53.33314825 -13.317976 4.7139355  53.33314825 -14.03743975 4.540653750000001  50 -16.667382 8.332618  50 -16.50772225 7.44687375  50.66666525 -15.5621965 8.01758075  50 -15.729361 7.689843  50 -14.79134 7.047067999999999  50.66666525 -15.40253675 7.1318365  50 -15.56970125 6.80409875  50.66666525 -14.6241755 7.37480575  51.3333305 -14.457011 7.7025435  50 -16.3480625 6.5611295  50.66666525 -13.6861545 6.73203075  50.66666525 -13.52649475 5.8462865  51.3333305 -13.51899 7.059768500000001  51.3333305 -13.35933025 6.17402425  51.3333305 -14.1376915 5.931055  51.3333305 -14.29735125 6.81679925  50 -13.69365925 5.518548749999999  50 -14.4720205 5.275579499999999  50.66666525 -14.46451575 6.4890615  50.66666525 -14.304856 5.60331725  50 -13.853319 6.404292999999999  50 -14.63168025 6.161323749999999  50.66666525 -15.242877 6.24609225  50.66666525 -15.08321725 5.360348  50 -15.25038175 5.032610249999999  50 -15.4100415 5.9183545  50 -16.18840275 5.67538525  51.99999575 -13.3518255 7.387506249999999  51.99999575 -13.19216575 6.501761999999999  48.950037 -21.280955 12.769008  47.63072475 -21.18343575 12.18583925  48.16258925 -20.65153425 12.18587625  48.1637885 -21.17184375 11.66436775  47.37754 -21.0627325 10.5597275  46.843277 -20.554015 11.6027075  46.84447625 -21.0743245 11.081199  47.37634075 -20.542423 11.081236  47.3751415 -20.0221135 11.6027445  46.3114125 -21.0859165 11.6026705  48.4181725 -21.8128565 12.768971  47.886308 -22.344758 12.768934  47.09886025 -21.71533725 12.18580225  47.631924 -21.70374525 11.66433075  46.822579 -23.408561 12.76886  46.56699575 -22.24723875 12.18576525  46.568195 -22.76754825 11.66425675  47.1000595 -22.23564675 11.66429375  46.8456755 -21.594634 10.5596905  46.313811 -22.1265355 10.5596535  46.31261175 -21.606226 11.081162  47.3544435 -22.8766595 12.768897  45.805043 -20.84451 8.350447000000001  45.80384375 -20.3242005 8.871955500000002  46.05822775 -20.96521325 9.976558750000001  46.5912915 -20.95362125 9.455087250000002  46.0570285 -20.44490375 10.49806725  46.59009225 -20.43331175 9.976595750000001  45.8026445 -19.803891 9.393464000000002  46.05942
[...]
<PointData  Scalars="c_HbO2"> 
<DataArray  type="Float64"  Name="c_HbO2"  format="ascii">2.2499227100435252e-17  2.2345960828777485e-17  2.2777411395972182e-17  2.2417825785806978e-17  2.1886851697943279e-17  2.1805409903163279e-17  2.2599392011615022e-17  2.1100731130373094e-17  2.2288917704512395e-17  2.2106799116120059e-17  2.2084949451442513e-17  2.2925344515411596e-17  2.2201250463080385e-17  2.2328864882489780e-17  2.2755015114291188e-17  2.2285481857733774e-17  2.2780381333663681e-17  2.2016570550389825e-17  2.2249082867775591e-17  2.2625233759191473e-17  2.2253898965090089e-17  2.1834366069399428e-17  2.2574133824709282e-17  2.2565308758280928e-17  2.2647954766216178e-17  2.2191795286531371e-17  2.1915197792297077e-17  2.2202652156104007e-17  2.2289332331013691e-17  2.2407194982210478e-17  2.2188792226272487e-17  2.1999624900099453e-17  2.2328048242753317e-17  2.1511157671477726e-17  2.2177624674533197e-17  2.2208191794290368e-17  2.2092382560738775e-17  2.4096532068788841e-17  2.3264381124895881e-17  1.8616443788931192e-17  2.3638368873781636e-17  2.2241405411762452e-17  2.2615440573565110e-17  2.1560402179979876e-17  2.2489918169329206e-17  2.2032836090300599e-17  2.1992222957765600e-17  2.1674409834474389e-17  2.2088808039389423e-17  2.2237659159512408e-17  2.2270809347886174e-17  2.2385253263900382e-17  2.2173385137747719e-17  2.2347692348513855e-17  2.2235935153998853e-17  2.2017922584277745e-17  2.2183898318591469e-17  2.2222514874346769e-17  2.2273546093956838e-17  2.2363646119644175e-17  2.2314257335252076e-17  2.2322278716030174e-17  2.2229890950925227e-17  2.2200257215816395e-17  2.2168608206507573e-17  2.2210277598500945e-17  2.2226507341695683e-17  2.2202256815645359e-17  2.2223924001339894e-17  2.2194035934816915e-17  2.2286176632571496e-17  2.2195746213342811e-17  2.2217440035773978e-17  2.2199551570192654e-17  2.2199615155793151e-17  2.2251178872792910e-17  2.2585854724951718e-17  2.2251431572572083e-17  2.2259976934506559e-17  2.1955530307159973e-17  2.2384708771060136e-17  2.2152678217055965e-17  2.2234158731055733e-17  2.2260714362091833e-17  2.2289761730973209e-17  2.2265229251503488e-17  2.2446732705894397e-17  2.2125852897148004e-17  2.2246876625218558e-17  2.2177511081488373e-17  2.2130236152305499e-17  2.2206326135635014e-17  2.2222835234902925e-17  2.2220905458025686e-17  2.2221525034110524e-17  2.2208171002320446e-17  2.2225671565935556e-17  2.2229043755923775e-17  2.2213409325617228e-17  2.2217775408581009e-17  2.2213771230501602e-17  2.2221007506750056e-17  2.2226041924224237e-17  2.2214187377414466e-17  2.2221711061929148e-17  2.2227194541026454e-17  2.2210251913770229e-17  2.2213080290811858e-17  2.2215126921092729e-17  2.2221414135273733e-17  2.2225850473442090e-17  2.2220093203527562e-17  2.2212776283848934e-17  2.2220848124382459e-17  2.2213531505951082e-17  2.2216428540397839e-17  2.2226524599095754e-17  2.2217261377755808e-17  2.2219195646135374e-17  2.2223756044092900e-17  2.2219048946389581e-17  2.2218227690154711e-17  2.2219666873380184e-17  2.2219860773555057e-17  2.2216160195944903e-17  2.2220390691349514e-17  2.2215802648895685e-17  2.2218387565829103e-17  2.2220580482025004e-17  2.2219603361709317e-17  2.2211306365681633e-17  2.2216958844854215e-17  2.2225325531277926e-17  2.2211854121706751e-17  2.2216583851734518e-17  2.2224723875130618e-17  2.2218392696586819e-17  2.2216142718103793e-17  2.2222367594210080e-17  2.2211969005923412e-17  2.2218079079678797e-17  2.2217927590012355e-17  2.2218208967479115e-17  2.2217512616149397e-17  2.2221108773365069e-17  2.2218223418500519e-17  2.2220659027423037e-17  2.2213114612804978e-17  2.2218480393123023e-17  2.2217785268418356e-17  2.2223230203884988e-17  2.2215187017803143e-17  2.2218521745695395e-17  2.2244469099981424e-17  2.2179510412777875e-17  2.2251518017386519e-17  2.2341633148951581e-17  2.2252882010317856e-17  2.2125215547071507e-17  2.2234258707877952e-17  2.2313279909998262e-17  2.2178535990574576e-17  2.2186238331373771e-17  2.2222085571727145e-17  2.2211102301946932e-17  2.2193495626101640e-17  2.2233634094188738e-17  2.2265791753084181e-17  2.2231013802570975e-17  2.2196389853120005e-17  2.2229055990378354e-17  2.2193513309690320e-17  2.2302482269075675e-17  2.2273109416499526e-17  2.2236323147260158e-17  2.2197463198745447e-17  2.2190874219786335e-17  2.2235516191410769e-17  2.2223268482505042e-17  2.2257095485937279e-17  2.2204280902423896e-17  2.2210904747697152e-17  2.2248129568968933e-17  2.2228109269340298e-17  2.1724274391010409e-17  2.2506598549168016e-17  2.2358191590049679e-17  2.1712538880467519e-17  2.2751564952549439e-17  2.2178047387921195e-17  2.2409849950717372e-17  2.1798445384883847e-17  2.2172624277445393e-17  2.2347445070303385e-17  2.2412423776327045e-17  2.2138047777505589e-17  2.2309509398940170e-17  2.2351060530602290e-17  2.2376197158046091e-17  2.2331131986786693e-17  2.2117215620834113e-17  2.1952754549873802e-17  2.2350000555478461e-17  2.2156867941003885e-17  2.2267856821982110e-17  2.2387086835234406e-17  2.2255496421748643e-17  2.2150501581720598e-17  2.2273086709846523e-17  2.3438067644243458e-17  2.2293299617225283e-17  2.2225459373126927e-17  2.2539766756407305e-17  2.2253889134167715e-17  2.1387678789941374e-17  2.2844713808429150e-17  2.2246768952846316e-17  2.2074294863828169e-17  2.2251792978373609e-17  2.2287007002621659e-17  2.2005367481265149e-17  2.3132828752051447e-17  1.5793436691328169e-17  2.4241478151056701e-17  1.9681005949566614e-17  2.1831424566448053e-17  2.2801542586459878e-17  2.1149160400298354e-17  2.2815710425524169e-17  2.2100609230814819e-17  2.1326986561714686e-17  2.2246066324421539e-17  2.1984202491516507e-17  2.2075360453209992e-17  2.2437371430075383e-17  2.2223935582600844e-17  2.2397309931690446e-17  2.1752665681901369e-17  2.2057689701985133e-17  2.2316996906438168e-17  2.2465628600812819e-17  2.2057321066666636e-17  2.2335356211736601e-17  2.2297076402179665e-17  2.2268006197290186e-17  2.2205864154047250e-17  2.1932886289761299e-17  2.2082757264556450e-17  2.2236051392726617e-17  2.2255149122339369e-17  2.2192929073764905e-17  2.2233728797782510e-17  2.2225259700375183e-17  2.2214304435783131e-17  2.2170446016592894e-17  2.2257659620205157e-17  2.2240538678588885e-17  2.2176937222442764e-17  2.2192964896171926e-17  2.2197945552698833e-17  2.2239204794314592e-17  2.2196739923407381e-17  2.2216101961992795e-17  2.2235023344332715e-17  2.2208527753114753e-17  2.2230305801944219e-17  2.2225286240609764e-17  2.2212331201774792e-17  2.2245882386540983e-17  2.2207501240487932e-17  2.2216123128811596e-17  2.2229032823999282e-17  2.2173342901950325e-17  2.2232776967187853e-17  2.2248545641427931e-17  2.2193998134722733e-17  2.2294477887310076e-17  2.2172454183163403e-17  2.2166999452303185e-17  2.2263442537075116e-17  2.2178844306156623e-17  2.2237886936810518e-17  2.2251100235455484e-17  2.2189158335502630e-17  2.2141950773899395e-17  2.2212501942639418e-17  2.2215383875290981e-17  2.2219589223089644e-17  2.2217235269171003e-17  2.2217276200191564e-17  2.2199068559925188e-17  2.2227812387098199e-17  2.2210424828861864e-17  2.2188543586987801e-17  2.2220273517307619e-17  2.2225233115062998e-17  2.2210051288169230e-17  2.2241125954438298e-17  2.2223037312789014e-17  2.2222402100625352e-17  2.2202752014653700e-17  2.2210669848372504e-17  2.2224481827985330e-17  2.2239912979207950e-17  2.2203375286407296e-17  2.2232631843732528e-17  2.2202375960863616e-17  2.2249912053291188e-17  2.2209047115090535e-17  2.2212086207611461e-17  2.2218007396634793e-17  2.2211965178455660e-17  2.2208542353016976e-17  2.2235256825190126e-17  2.2198458776482229e-17  2.2220703825556219e-17  2.2235531560249237e-17  2.2237400141290752e-17  2.2207923830710263e-17  2.2227813756919427e-17  2.2214849796718538e-17  2.2224274530992296e-17  2.2224268739530459e-17  2.2226796215064716e-17  2.2278419415081295e-17  2.2218305617124990e-17  2.2236657349834777e-17  2.2238176538640320e-17  2.2211097765100751e-17  2.2222530559031018e-17  2.2217010683505979e-17  2.2220733190773128e-17  2.2210697144539546e-17  2.2235939749287857e-17  2.2212558195789250e-17  2.2859545549726312e-17  2.1239271433089007e-17  2.1699509237208673e-17  2.0956231902270727e-17  2.2782946309303358e-17  2.2565136218507677e-17  2.2776314639177883e-17  2.2792234219822784e-17  2.2461053789654870e-17  2.2644147321360481e-17  2.2756422344178711e-17  2.0113852059282775e-17  2.3070516967960861e-17  2.0903254755621641e-17  2.1096986876908976e-17  2.0393835660339415e-17  2.0332363785373840e-17  2.2515393700741017e-17  2.2712334285650824e-17  2.2192842406542412e-17  2.4480570366031483e-17  2.2212815505811335e-17  2.2104303546662692e-17  2.2400309032972299e-17  2.2137750802943569e-17  2.2016251149761255e-17  2.2128913540906686e-17  2.2245429660970994e-17  2.1824000851890997e-17  2.2027195040721613e-17  2.2300584465475036e-17  2.2019678369589696e-17  2.2302154530703458e-17  2.2236303214674101e-17  2.2330220040316599e-17  2.2249813472809060e-17  2.2203012966738481e-17  2.2200943127618992e-17  2.2119864257344554e-17  2.2113247945245185e-17  2.2356617258552280e-17  2.2230839895754080e-17  2.1918054417677926e-17  2.3017101476203551e-17  2.2142426065972853e-17  2.1986278345729080e-17  2.2099470444298798e-17  2.2474114352169796e-17  2.1299070948914472e-17  2.2707194434937839e-17  2.2466017266055383e-17  2.2218322042364157e-17  2.2218618423283913e-17  2.2219004084964430e-17  2.2219052250909559e-17  2.2215123436228390e-17  2.2218662716862905e-17  2.2218102856809679e-17  2.2200606569454654e-17  2.2169398181755835e-17  2.2171491281524525e-17  2.2176515564626779e-17  2.2193459717452376e-17  2.2160274313382188e-17  2.2277135344570332e-17  2.2444478898531719e-17  2.1819124162025813e-17  2.2337972180231437e-17  2.2488642416436495e-17  2.2212366533261777e-17  2.2611612084589978e-17  2.2394758622915875e-17  2.2145785318974139e-17  2.2192616290923525e-17  2.2016779849783219e-17  2.2267068380043782e-17  2.2285229345126725e-17  2.2222408358587296e-17  2.2282205339142017e-17  2.2203612376212368e-17  2.2057257671276465e-17  2.2177251491603036e-17  2.2159587331762657e-17  2.2212966247863056e-17  2.2116118380516773e-17  2.2263240336151519e-17  2.2143127793867215e-17  2.2181210945606539e-17  2.2122036180816048e-17  2.1994537585399204e-17  2.2341236141085875e-17  2.2155381230900397e-17  2.2312925137412392e-17  2.1929952153633969e-17  2.2351288298841017e-17  2.2218740110612735e-17  2.1725555439205430e-17  2.2566540733676002e-17  2.2210589373413166e-17  2.2214063311315304e-17  2.2219159146849693e-17  2.2221711619172341e-17  2.2218347466183698e-17  2.2222747386014676e-17  2.2219368297466460e-17  2.2214612601167457e-17  2.2205966303623474e-17  2.2219035847300210e-17  2.2224462676870850e-17  2.2213808980876993e-17  2.2223609700312384e-17  2.2212582178732759e-17  2.2217645709666033e-17  2.2221182979353890e-17  2.2221244183239884e-17  2.2221444432071331e-17  2.2218927909347380e-17  2.2222213280585181e-17  2.2231269505764356e-17  2.2214233929881395e-17  2.2217707571177499e-17  2.2224162916853824e-17  2.2213249803372298e-17  2.2226020683342829e-17  2.2206432897653427e-17  2.2225617382628190e-17  2.2212482139247281e-17  2.2217958633877513e-17  1.8572799549153713e-17  1.5824262956320625e-17  2.4817118770083909e-17  2.2084852126671849e-17  2.2167884163133226e-17  2.2054998239817200e-17  2.2122555120077019e-17  2.2128635786909631e-17  2.2090095036157625e-17  2.2195234586152932e-17  2.2279612847161211e-17  2.2240418259501152e-17  2.2265282682658470e-17  2.2306236733096750e-17  2.2246283495128096e-17  2.2155320669601195e-17  2.2384227637178816e-17  2.2296676489310786e-17  2.2282587341876943e-17  2.2279673593060309e-17  2.2075843071573516e-17  2.2375306964048382e-17  2.2174747499060741e-17  2.2141739405787289e-17  2.2023789937002215e-17  2.2173507967974141e-17  2.2191742255471636e-17  2.2237605396647129e-17  2.2193849644086334e-17  2.2145730473077141e-17  2.2221934772255364e-17  2.2076781802155835e-17  2.2136141241847116e-17  2.2591488124444686e-17  2.1945165326371915e-17  2.2343700910459000e-17  2.2072603889063676e-17  2.2050180222762792e-17  2.2325279190629639e-17  2.2243031051099827e-17  2.2085348229672919e-17  2.2581536452446134e-17  2.2163754245143102e-17  2.2181192256838613e-17  2.2186415639902924e-17  2.0725975626178876e-17  2.2235723005879339e-17  2.2219012984548705e-17  2.2320990143241494e-17  2.2537608961247590e-17  2.2301749054004630e-17  2.2201819396460210e-17  2.1863976541815960e-17  2.2168871164865088e-17  2.2241472753886989e-17  2.2218226333102952e-17  2.2094145845598692e-17  2.1891264685469787e-17  2.2202605588182224e-17  2.2174815178105644e-17  2.2285141793791297e-17  2.2272108514993938e-17  2.2226047471329814e-17  2.2199285945541255e-17  2.2235063257340400e-17  2.2243450838405814e-17  2.2194061476978830e-17  2.2219867031929739e-17  2.2225893546639189e-17  2.2359112289801732e-17  2.2446138275935899e-17  2.2335290842532922e-17  2.2214493250443456e-17  2.2203536803805645e-17  2.2278663423447465e-17  2.2215718298565938e-17  2.2201033904944263e-17  2.2259811602764398e-17  2.2189714170435492e-17  2.2417259149748913e-17  2.2196191160077429e-17  2.2268909340378875e-17  2.2177333157347211e-17  2.2036908956116889e-17  2.2268049887253016e-17  2.2216386467003572e-17  2.2109565564549741e-17  2.2280118613891855e-17  2.2047104905041404e-17  2.2413121569696971e-17  2.1933563545615130e-17  2.2294065079034710e-17  2.2487315850149388e-17  2.2162471828115461e-17  2.2175034140471071e-17  2.2054478629736608e-17  2.2125454158516027e-17  2.2078440822596206e-17  2.2096297457126669e-17  2.1840930608038523e-17  2.2615240417102730e-17  2.2377764592868478e-17  2.1878754914501622e-17  2.2215969821423694e-17  2.2492613124262573e-17  2.2170954495530593e-17  2.2169496306392760e-17  1.6861504842570830e-17  2.2641713585044217e-17  2.1617216618496545e-17  2.1495635396186172e-17  2.3712118164783893e-17  2.0899394728682631e-17  2.2582622332848489e-17  2.2960418020572420e-17  2.4867464463981946e-17  2.3983207759836483e-17  1.6477893627800591e-17  2.1888023064039308e-17  2.2608490612719756e-17  2.2221608868647374e-17  2.2214177819638237e-17  2.2209549952003677e-17  2.2217448923498417e-17  2.2210613478822052e-17  2.2215740736859872e-17  2.2219894186163562e-17  2.2225236483441519e-17  2.2218819082099579e-17  2.2217812161911041e-17  2.2219875032812461e-17  2.2220821481377779e-17  2.2216797406468849e-17  2.2219642562755056e-17  2.2214869722030179e-17  2.2213055211578245e-17  2.2220396665404745e-17  2.2219565284353845e-17  2.2208979056665015e-17  2.2216314113856883e-17  2.2224586117808757e-17  2.2224017082782993e-17  2.2210838966309794e-17  2.2219250922880155e-17  2.2214485352955312e-17  2.1644012642315062e-17  2.9167390753536253e-17  2.0505906903449726e-17  2.1145187703997479e-17  2.2216293025142991e-17  2.1674549220618408e-17  2.5455716554700042e-17  1.8779249334039741e-17  2.2237304776248026e-17  2.1681943221023665e-17  2.2494363815186886e-17  2.2495508098166129e-17  2.5243578854659015e-17  2.2252885382660814e-17  2.2341996324401753e-17  2.2223963902788520e-17  2.2332853462233016e-17  2.1818263151661669e-17  2.1937165081049074e-17  2.2230626581317076e-17  2.1567013334848686e-17  2.3071836455718805e-17  2.2090722631256339e-17  2.1170270789642649e-17  2.3391409083874878e-17  2.2681654205973280e-17  2.1955942164510791e-17  2.1139733150354968e-17  2.3730081644545639e-17  2.2284056106095598e-17  2.1141148537861972e-17  2.1566819619893432e-17  2.2288800253782874e-17  2.6035789668688952e-17  2.2220223155390189e-17  2.2210479270922405e-17  2.2220606251028569e-17  2.2218821834220791e-17  2.2215207453780088e-17  2.2219916151898028e-17  2.2218342763664589e-17  2.2218737076428344e-17  2.2216112814082382e-17  2.2230809990684020e-17  2.2214086440993747e-17  2.2220642617577199e-17  2.2207602926303193e-17  2.2216125481882530e-17  2.2226503657373340e-17  2.2205579444577956e-17  2.2201726858533856e-17  2.2212319762765977e-17  2.2224205617157272e-17  2.2223398176121039e-17  2.2225960359868650e-17  2.2235748797252663e-17  2.2226749360965501e-17  2.2239455511912652e-17  2.2204455943969329e-17  2.2222534758799640e-17  2.2224518090373795e-17  2.2210395918634922e-17  2.2212204395955149e-17  2.2213717651142795e-17  2.2203931510148352e-17  2.2226512062775207e-17  2.2209001934530565e-17  2.2220353224601379e-17  2.2210111496691242e-17  2.2214590478252366e-17  2.2229344428770014e-17  2.2210251700510829e-17  2.2218562099668834e-17  2.2217991918961590e-17  2.2218878849130500e-17  2.2216021615160603e-17  2.2219801669029597e-17  2.2226348567770635e-17  2.2263481279697959e-17  2.2200077858647288e-17  2.2228683248089405e-17  2.2231024255154553e-17  2.2216978211768150e-17  2.2205360172097311e-17  2.2199896721192232e-17  2.2227478542440161e-17  2.2226817923726632e-17  2.2210752150788396e-17  2.2216364344437580e-17  2.2238189357010669e-17  2.2236856872206922e-17  2.2214832594911495e-17  2.2239595051110675e-17  2.2223064450150332e-17  2.2205838524278495e-17  2.2218567485125281e-17  2.2217745973646685e-17  2.2219200774097770e-17  2.2220460011467222e-17  2.2220701899883502e-17  2.2212139914216397e-17  2.2214350006350722e-17  2.2225572970554613e-17  2.2220512419705208e-17  2.2218358464757936e-17  2.2217522423568018e-17  2.2221396992291939e-17  2.2219989500485807e-17  2.2214847750065586e-17  2.2218420604823565e-17  2.2218037265278526e-17  2.2219490267933636e-17  2.2210700722956447e-17  2.2217993040666345e-17  2.2207670527688484e-17  2.2219122180648036e-17  2.2225350733423044e-17  2.2216007505777224e-17  2.2225864474329324e-17  2.2210506650489902e-17  2.2220230814906407e-17  2.2212142062359310e-17  2.1188723621697549e-17  2.6369082331516717e-17  2.2995567990383208e-17  2.0860684988089000e-17  2.2618014459623111e-17  2.2024060935306505e-17  2.0499004484874769e-17  2.0428598024531331e-17  2.2225714466415794e-17  2.1695492206596130e-17  2.2522213247310393e-17  2.2456486132955854e-17  2.4770189860047052e-17  2.2252930275317618e-17  2.2357964734516280e-17  2.2230088365091249e-17  2.2311758710876807e-17  2.1878950440958598e-17  2.2259889145464805e-17  2.2236930464807125e-17  2.1654634751699742e-17  2.2370265848549479e-17  2.3701391823242754e-17  2.2820551068367722e-17  2.2088462726751511e-17  2.1626659389065997e-17  2.2287761353160955e-17  2.1358752045457256e-17  2.1550197159373909e-17  2.2059860406552529e-17  2.4543203115901864e-17  2.1626600892242725e-17  2.2300808327697051e-17  2.2015589041358171e-17  2.2220286460525918e-17  2.2224241872037763e-17  2.2212117505604680e-17  2.2217010938941026e-17  2.2218254813294016e-17  2.2219524046563176e-17  2.2225990193192113e-17  2.2217015790025185e-17  2.2215679820348027e-17  2.2215584201954144e-17  2.2229052610623204e-17  2.2211688756745586e-17  2.2216273011118354e-17  2.2215592259307536e-17  2.2211943122404666e-17  2.2216518495957279e-17  2.2221676552981768e-17  2.2221710078755331e-17  2.2221556347713520e-17  2.2224499034530179e-17  2.2225754669740892e-17  2.2217448964688607e-17  2.2201052379189873e-17  2.2297334381203457e-17  2.2346819994401585e-17  2.2188192790571255e-17  2.2340710568546212e-17  2.2173509132101011e-17  2.2197165712778859e-17  2.2158583428167182e-17  2.2385399341673811e-17  2.2268459145804660e-17  2.2185963837355131e-17  2.1979201212480855e-17  2.2225413939933916e-17  2.2839137059094996e-17  2.2201995560660117e-17  2.2164720881423979e-17  2.2183872531253963e-17  2.2001265152141150e-17  2.2300806097681399e-17  2.2411167253803201e-17  2.2408143276433362e-17  2.2520984825839057e-17  2.2121391485415241e-17  2.2373909489175009e-17  2.1926182082011356e-17  2.2284734836487897e-17  2.2280941349800197e-17  2.2209246225331113e-17  2.2065352174271973e-17  2.1899809673057472e-17  2.2202188241695170e-17  2.2491138317303582e-17  2.2278272010329386e-17  2.2235583629018515e-17  2.2171493151865660e-17  2.2253842144493577e-17  2.2223450747095874e-17  2.2270231454876755e-17  2.2185675550543020e-17  2.2238544829946609e-17  2.2250770889624572e-17  2.2241313539887720e-17  2.2267753442073427e-17  2.2143159749787