<?xml version="1.0"?>
<VTKFile type="UnstructuredGrid"  version="0.1"  >
<UnstructuredGrid>
<Piece  NumberOfPoints="5928" NumberOfCells="27362">
<Points>
<DataArray  type="Float64"  NumberOfComponents="3"  format="ascii">-55.333333 5.757605 -12.917043  -54.6656255 5.5857695 -12.98827875  -54.66667575 6.244551 -12.6524385  -54.66667575 6.67858675 -13.478188  -54.0000185 6.731497 -12.387834  -53.99896825 6.072715499999999 -12.72367425  -53.99896825 6.50675125 -13.54942375  -53.997918 5.413933999999999 -13.0595145  -52.662503 5.070263 -13.201986  -53.3302105 5.242098499999999 -13.13075025  -53.33126075 5.90088 -12.79491  -53.33126075 6.33491575 -13.6206595  -55.333333 6.384615 -21.282051  -53.99999975 5.58033075 -20.44700375  -55.333333 5.59784775 -21.0675955  -55.333333 6.13521225 -20.55878875  -55.333333 5.885809500000001 -19.8355265  -53.99999975 4.793563499999999 -20.23254825  -53.99999975 5.330928 -19.7237415  -55.333333 5.348445 -20.34433325  -55.333333 4.8110805 -20.85314  -52.66666650000001 4.7760465 -19.6119565  -53.99999975 5.8297335 -21.170266  -52.66666650000001 5.274852 -21.058481  -52.66666650000001 5.025449249999999 -20.33521875  -53.99999975 5.04296625 -20.9558105  -50 4.165089 -20.834911  -51.33333325 3.93320325 -20.7322405  -51.33333325 4.47056775 -20.22343375  -51.33333325 4.719970500000001 -20.946696  -52.66666650000001 4.488084750000001 -20.8440255  -52.66666650000001 4.238682 -20.12076325  -52.66666650000001 3.7013175 -20.62957  -55.333333 5.387004 -18.389002  -55.333333 4.8496395 -18.89780875  -53.99999975 5.08152525 -19.00047925  -55.333333 5.09904225 -19.621071  -55.333333 4.561677749999999 -20.12987775  -53.99999975 4.54416075 -19.509286  -55.333333 4.312275 -19.4066155  -55.333333 5.636406750000001 -19.11226425  -55.333333 3.237546 -20.424229  -55.333333 3.7749105 -19.91542225  -53.99999975 4.00679625 -20.01809275  -55.333333 4.024313250000001 -20.6386845  -53.99999975 3.46943175 -20.5268995  -53.99999975 4.256199000000001 -20.741355  -50 -1.455467 -20.215637  -51.29820925 -1.36223625 -19.82111675  -50.635768 -0.9819005000000001 -19.46912825  -50.6435895 -1.7233505 -19.68243725  -51.28717899999999 -1.991234 -19.1492375  -51.93397725 -0.88866975 -19.074608  -51.94179875 -1.63011975 -19.287917  -51.2793575 -1.249784 -18.9359285  -51.271536 -0.5083340000000001 -18.7226195  -52.5964185 -1.2690055 -19.4265965  -50.65461975 -1.09435275 -20.3543165  -51.3092395 -0.7332385 -20.492996  -51.952829 -1.001122 -19.95979625  -51.29038775 -0.6207862500000001 -19.60780775  -52.618479 -0.01101 -20.770355  -52.59962725 0.10144225 -19.88516675  -52.60744875 -0.64000775 -20.09847575  -51.9450075 -0.259672 -19.74648725  -51.92615575 -0.14721975 -18.861299  -52.588597 -0.5275555000000001 -19.2132875  -52.5807755 0.2138945 -18.9999785  -51.96385925 -0.37212425 -20.6316755  -52.574358 -2.527001 -18.082838  -52.5665365 -1.785551 -17.869529  -52.58538824999999 -1.89800325 -18.75471725  -51.92294699999999 -1.5176675 -18.40272875  -52.57756675 -1.15655325 -18.54140825  -51.9151255 -0.7762175 -18.18941975  -52.558715 -1.044101 -17.65622  -51.9307685 -2.2591175 -18.61603775  -52.543072 0.438799 -17.229602  -52.5508935 -0.302651 -17.442911  -52.56974525 -0.41510325 -18.32809925  -51.907304 -0.03476750000000003 -17.97611075  -52.56192375000001 0.32634675 -18.11479025  -51.081305 -6.381108 -25.537587  -50.2917525 -5.826786500000001 -24.881461  -50.81097875 -5.304693 -24.88432825  -50.81097875 -5.82769725 -24.361324  -50.5406525 -5.274286500000001 -23.185061  -50.02142625 -5.27337575 -23.705198  -50.5406525 -4.751282250000001 -23.70806525  -50.5406525 -4.228278 -24.2310695  -50.02142625 -4.7503715 -24.22820225  -49.5022 -5.272465 -24.225335  -50 -2.075448 -22.924552  -49.48077375 -2.5975415 -22.92168475  -50 -2.59845225 -22.40154775  -50.27032625 -3.67486725 -23.0548065  -49.7511 -4.196960750000001 -23.05193925  -50.27032625 -4.1978715 -22.53180225  -50 -3.1214565 -21.8785435  -49.48077375 -3.12054575 -22.3986805  -48.9615475 -3.119635 -22.9188175  -50.27032625 -3.151863000000001 -23.57781075  -49.7511 -3.6739565 -23.5749435  -47.923095 -4.163822 -22.913083  -48.44232125000001 -3.6417285 -22.91595025  -48.9615475 -3.64263925 -22.39581325  -49.23187375000001 -4.71905425 -23.049072  -49.23187375000001 -4.19605 -23.57207625  -48.7126475 -4.7181435 -23.569209  -53.206907 -4.254875 -25.538219  -53.10749300000001 -3.05295625 -25.138389  -53.7385135 -3.5503595 -24.82973125  -52.93678675 -3.00550275 -24.1763145  -52.66666650000001 -1.7561305 -22.81441  -52.83737275 -1.803584 -23.7764845  -53.46839325000001 -2.30098725 -23.46782675  -54.27012000000001 -2.845844 -24.1212435  -53.6390995 -2.34844075 -24.42990125  -53.008079 -1.8510375 -24.738559  -52.40518025 -3.71001825 -24.88480225  -51.6034535 -3.1651615 -24.2313855  -52.30576625 -2.5080995 -24.48497225  -52.13506 -2.460646 -23.52289775  -51.5040395 -1.96324275 -23.8315555  -50.70231275 -1.418386 -23.17813875  -51.33333325 -1.91578925 -22.869481  -52.20635225 -1.30618075 -24.08514225  -52.035646 -1.25872725 -23.12306775  -51.4046255 -0.7613240000000001 -23.4317255  -50.80172675 -2.62030475 -23.57796875  -55.333333 -1.436813 -22.704268  -54.70231250000001 -0.9394097499999999 -23.01292575  -54.170706 -1.64392525 -23.7214135  -53.99999975 -1.59647175 -22.759339  -53.5396855 -1.146522 -24.03007125  -53.36897925 -1.0990685 -23.06799675  -54.071292 -0.4420065 -23.3215835  -54.8017265 -2.1413285 -23.41275575  -52.809251 0.5528 -23.938899  -53.4402715 0.05539674999999999 -23.63024125  -52.908665 -0.6491187500000001 -24.338729  -52.73795875 -0.60166525 -23.3766545  -52.10693825 -0.1042620000000001 -23.68531225  -50 -0.5404075 -19.383056  -50 -1.233091 -19.44385925  -50.635768 -0.06684100000000004 -18.63654725  -50.635768 -0.7595245 -18.6973505  -50 -1.010715 -18.6720815  -50 -0.3180315 -18.61127825  -50 0.374652 -18.550475  -50 -0.7627835000000001 -20.15483375  -50.635768 -0.2892170000000001 -19.408325  -50 -0.07010000000000005 -20.0940305  -50 0.152276 -19.32225275  -50 1.315267 -19.972424  -50 0.8449595 -19.2614495  -50.635768 1.09615 -19.2867185  -50.635768 0.4034665 -19.34752175  -51.271536 0.1843494999999999 -18.66181625  -51.271536 0.877033 -18.601013  -50.635768 0.6258425 -18.575744  -50 0.6225835 -20.03322725  -50 -0.565963 -17.128526  -50.635768 -0.3147725 -17.153795  -50.635768 0.155535 -17.8647695  -50.635768 -0.5371485 -17.92557275  -51.271536 0.4067255 -17.8900385  -51.271536 -0.285958 -17.95084175  -51.271536 -0.063582 -17.179064  -50 -0.0956555 -17.8395005  -50 -0.788339 -17.90030375  -51.907304 0.1876085 -17.204333  -51.907304 0.6579159999999999 -17.9153075  -55.333333 -5.383485 -18.390837  -55.333333 -4.529608000000001 -18.07038275  -54.64358925000001 -4.504441 -17.64474475  -54.64358925000001 -4.669364 -18.31383725  -53.9538455 -3.955243 -18.2368375  -54.64358925000001 -3.650564 -17.3242905  -54.64358925000001 -3.815487 -17.993383  -53.9538455 -3.79032 -17.567745  -53.9538455 -3.625397 -16.8986525  -55.333333 -3.675731 -17.7499285  -55.333333 -5.218562 -17.7217445  -54.64358925000001 -4.339518 -16.97565225  -55.333333 -5.053639 -17.052652  -55.333333 -4.364685000000001 -17.40129025  -55.333333 -4.723793 -15.714467  -55.333333 -4.034839 -16.06310525  -55.333333 -4.199762 -16.73219775  -54.64358925000001 -4.174595 -16.30655975  -54.64358925000001 -3.485641 -16.655198  -55.333333 -3.510808 -17.080836  -55.333333 -3.345885 -16.4117435  -55.333333 -4.888716000000001 -16.3835595  -55.333333 -1.967977 -17.10902  -54.64358925000001 -2.107733 -17.3524745  -54.64358925000001 -2.796687 -17.00383625  -54.64358925000001 -2.96161 -17.67292875  -53.9538455 -3.101366 -17.91638325  -53.9538455 -2.936443 -17.24729075  -53.9538455 -2.247489 -17.595929  -55.333333 -2.656931 -16.76038175  -55.333333 -2.821854 -17.42947425  -53.26410174999999 -2.387245 -17.8393835  -53.26410174999999 -3.076199 -17.49074525  -53.26410174999999 -3.241122 -18.15983775  -53.204962 4.256687 -25.538351  -51.8716465 3.71086825 -25.41748525  -51.87161225 4.24299725 -24.88539025  -52.4037215 3.71082325 -24.88545525  -51.602481 3.1649595 -24.2325595  -51.070406 3.1650045 -24.7645895  -51.07037175 3.6971335 -24.2324945  -50.5382625 4.2293075 -24.2324295  -50.53829675 3.6971785 -24.7645245  -50.538331 3.1650495 -25.2966195  -52.67285275 4.788861000000001 -25.538286  -52.1407435 5.321035 -25.538221  -51.33953725 4.24304225 -25.41742025  -51.339503 4.77517125 -24.88532525  -52.672887 4.256732 -26.070381  -52.14077775 4.788906 -26.070316  -52.140812 4.256777 -26.602411  -51.3395715 3.71091325 -25.94951525  -50.807428 4.77521625 -25.41735525  -50.80739375 5.30734525 -24.88526025  -51.60863424999999 5.853209 -25.538156  -51.6086685 5.32108 -26.070251  -51.0765935 5.321125 -26.602281  -50.80746225 4.24308725 -25.94945025  -51.076662 4.256867 -27.666471  -50.8074965 3.71095825 -26.48154525  -51.07662775 4.788996 -27.134376  -51.60870275 4.788951 -26.602346  -51.608737 4.256822 -27.134441  -50 2.073232 -22.926768  -50.2691655 2.61914075 -24.11169375  -50.26913125 3.15126975 -23.57959875  -50.8012405 2.61909575 -23.57966375  -50.28844225 3.71285775 -26.99869975  -50.8074965 3.19265025 -26.99985325  -50.01927675 2.648641 -26.332082  -50.01927675 3.166949 -25.813774  -50.538331 2.6467415 -25.8149275  -50.538331 2.1284335 -26.3332355  -49.5002225 3.1688485 -26.3309285  -50 0 -25  -49.48094575 0.5202075 -24.9988465  -50 0.518308 -24.481692  -50.2691655 1.58252475 -25.14830975  -49.75011125 2.10273225 -25.14715625  -50.2691655 2.10083275 -24.63000175  -50 1.036616 -23.963384  -49.48094575 1.0385155 -24.4805385  -48.9618915 1.040415 -24.997693  -50.2691655 1.06421675 -25.66661775  -49.75011125 1.58442425 -25.66546425  -49.48094575 1.5568235 -23.9622305  -49.48094575 2.0751315 -23.4439225  -49.75011125 2.62104025 -24.62884825  -48.9618915 2.077031 -23.961077  -48.9618915 1.558723 -24.479385  -50 1.554924 -23.445076  -47.923783 2.08083 -24.995386  -48.44283725 1.5606225 -24.9965395  -48.44283725 2.0789305 -24.4782315  -49.231057 2.622
[...]
<PointData  Scalars="c_HbO2"> 
<DataArray  type="Float64"  Name="c_HbO2"  format="ascii">2.0000000000000001e-17  2.0000000000000001e-17  2.0000000000000001e-17  1.9938422638941120e-17  2.0000000000000001e-17  2.0000000000000001e-17  1.9531787493983776e-17  2.0000000000000001e-17  2.0000000000000001e-17  2.0000000000000001e-17  2.0000000000000001e-17  2.0259442710557807e-17  2.2219929181399656e-17  2.1780137407111092e-17  2.2102935832000876e-17  2.1945839165517227e-17  2.2076764967829448e-17  2.1080204167980991e-17  2.0798515893123347e-17  2.1903619884983492e-17  2.2159144718324012e-17  2.0219732215965886e-17  2.1579270309018051e-17  2.0888276386604567e-17  2.0556057052403348e-17  2.1475006356195733e-17  2.4055188130476772e-17  2.0692607374515574e-17  1.9397754062687354e-17  1.9516897288977953e-17  2.0932033288985329e-17  2.0773715261020434e-17  2.0408930765280987e-17  2.1934008513136642e-17  2.1702567337993402e-17  2.1209951086812523e-17  2.2305341005926134e-17  2.2140430953952536e-17  2.1194286001595184e-17  2.1885779761027773e-17  2.2115065016364908e-17  2.1999085039263812e-17  2.1925890641847903e-17  2.1264500868949115e-17  2.2049188580339399e-17  2.1228941192381404e-17  2.1254964384492034e-17  2.1525820819890397e-17  2.0786342674565443e-17  2.1396831928643861e-17  2.1923222230925326e-17  2.1016967884113614e-17  2.0341009500055101e-17  2.0729192480749304e-17  2.0536365138218598e-17  2.0790094440400251e-17  2.0451507602948516e-17  2.1869706730043473e-17  2.1116521699580334e-17  2.0839069255665505e-17  2.0546778908070084e-17  2.0723160890954648e-17  2.0171038843578019e-17  2.0511363277717968e-17  2.0271088024860350e-17  2.0442005233150113e-17  2.0097268113320835e-17  2.0293970611412591e-17  2.0641626776552246e-17  2.0454394978338051e-17  1.9911651088190254e-17  2.0186687338113496e-17  1.9975685414415911e-17  2.0139061284752369e-17  2.0287981528135273e-17  2.0194639194296040e-17  2.0296039422961045e-17  2.0088352973217391e-17  2.0015688626971918e-17  2.0088961079433662e-17  2.0061632196201957e-17  2.0071300951290406e-17  2.2113000724612492e-17  2.1713360695308595e-17  2.1758116672467332e-17  2.1800155042573610e-17  2.1165318791665247e-17  2.0989805343937227e-17  2.1174978546238982e-17  2.1364006671272311e-17  2.1385487975492773e-17  2.1464391721670477e-17  2.1770588422025451e-17  2.0664191628124303e-17  2.3457630363144967e-17  2.2992765332627506e-17  2.3228914503490458e-17  2.1049043203908503e-17  2.2616651411976702e-17  1.7813582800800766e-17  2.1549832925972174e-17  2.1273506597830050e-17  2.1586418916464920e-17  2.1833718830725604e-17  2.1455544755986413e-17  2.0452821759321451e-17  2.2099761832818385e-17  2.1904097174197464e-17  2.1794586373973034e-17  2.2093843548837724e-17  2.1812764034275132e-17  2.2178445820421921e-17  2.1424003179462768e-17  2.1206729242351579e-17  2.1157028918005963e-17  2.1785901991249474e-17  2.1879232073362834e-17  2.1812761016184844e-17  2.1531506852428944e-17  2.1874466120892582e-17  2.0942803156427878e-17  2.1710192630471854e-17  2.1464053514918250e-17  2.1405318684067046e-17  1.8983082620953937e-17  2.0193707956708102e-17  2.1173218020948033e-17  2.0359204368012641e-17  2.2850386967859038e-17  2.1212077868140417e-17  2.2049652328762111e-17  2.1701548124995527e-17  2.1797598779287104e-17  2.1618303043929619e-17  2.1534672308349332e-17  2.1216500912430840e-17  2.1711233667297652e-17  2.1663250421350627e-17  2.1589625826914541e-17  2.1372393990391069e-17  2.1417973794292312e-17  2.0999079211225840e-17  2.0538882182244095e-17  2.1960956433437910e-17  2.2357483883807180e-17  2.1229268934144049e-17  2.1406973052191274e-17  2.1779121607117773e-17  2.2023378542011165e-17  2.1774140127467720e-17  2.2110169355497230e-17  2.1534400410457288e-17  2.1789376626327149e-17  2.2018608647202663e-17  2.1202623614432460e-17  2.1987488896520744e-17  2.2127899666433313e-17  2.1519555798230649e-17  2.0584608424992794e-17  2.0660162836357410e-17  2.0958846842927622e-17  2.2541264889750768e-17  2.1718874907954166e-17  2.0935255875314232e-17  2.1197583787767513e-17  2.1165756582989436e-17  2.0472581212730652e-17  2.0456711116921252e-17  2.0398279231652638e-17  2.1902359890985015e-17  2.1907090632555776e-17  2.0247820495556643e-17  2.0188914093818064e-17  2.2044159353851437e-17  2.2169748656743027e-17  2.1220259941491572e-17  2.1325474167322590e-17  2.0855537670508563e-17  2.1054055600891235e-17  2.1365728714671473e-17  2.0442675637444455e-17  2.0416046241903188e-17  2.1866015075797214e-17  2.2226884514443223e-17  2.1148623751342694e-17  2.1844976547514177e-17  2.1786521031791665e-17  2.1506217542045313e-17  2.1599146428082485e-17  2.1862550870803128e-17  2.0886191803461484e-17  2.0798270840469681e-17  2.1950045064278065e-17  2.1694417188799279e-17  2.2055251718385157e-17  2.1740085523028693e-17  2.1090944438057538e-17  2.0880412691939195e-17  2.1163891558180216e-17  2.0464960807792847e-17  2.0483843907441402e-17  2.0472578118713765e-17  2.1810115281214557e-17  2.1839267260290168e-17  2.0113420418640205e-17  1.9940299819045430e-17  2.0345158853584512e-17  2.2101565026886509e-17  2.1885316124752081e-17  2.1830323178553467e-17  2.1875897327465202e-17  2.0986922870717016e-17  2.1554409971772663e-17  2.0795111994617782e-17  2.1327789863921324e-17  2.1382046849062848e-17  2.1381413993528711e-17  2.2036543652349198e-17  2.2114837849804756e-17  2.1753654443076204e-17  2.1669168713395108e-17  2.2064186618355937e-17  2.2013906824306881e-17  2.2066994497300794e-17  2.1808883452010669e-17  2.1875964684245409e-17  2.1747446935091800e-17  2.2033543593258682e-17  2.2042237096110499e-17  2.2109033041002536e-17  2.1803653553922730e-17  2.2138770426360128e-17  2.1875521117265660e-17  2.2099904083754097e-17  2.2257011179325294e-17  2.2076720574713428e-17  2.2486765146635653e-17  2.3203750996924115e-17  2.1396463438509621e-17  2.1472839891182648e-17  2.1863576071203732e-17  2.1860667826052808e-17  2.1636748370062795e-17  2.1445592375256310e-17  2.1516875064141822e-17  2.1715672811452076e-17  2.1740791278241463e-17  2.2278762400064727e-17  1.9657356064515955e-17  2.4312818634501807e-17  2.3297387504104449e-17  2.2344803114316455e-17  2.0773530792637952e-17  2.2387645577524068e-17  1.9380656122059551e-17  2.1779071692585999e-17  2.1242044659533873e-17  2.2093668733845710e-17  1.9204586367480133e-17  1.9213301110421958e-17  2.2066590812851676e-17  2.1482345459208203e-17  2.1503416444201207e-17  2.4956250189140631e-17  2.1964743767420776e-17  2.2072089592105251e-17  2.2035582395255789e-17  2.1885981547650500e-17  2.1785052912618725e-17  2.2019180203602560e-17  1.9994632184719124e-17  2.0375430331245650e-17  1.9505924218647225e-17  2.0434154973496576e-17  2.1364362064418862e-17  2.0380477819538024e-17  2.0817468123270892e-17  2.2213673638704178e-17  2.2166004768592864e-17  2.2201772639851594e-17  2.2206273522394672e-17  2.2179565037119088e-17  2.2163594377213383e-17  2.2173336093377425e-17  2.2207301772071506e-17  2.2199841050663536e-17  2.2199555422561352e-17  2.2198712400028560e-17  2.2195032357731613e-17  2.2205353488073968e-17  2.2160436655554360e-17  2.2144451121959476e-17  2.1933983690659421e-17  2.1871397575159209e-17  2.1903258739334410e-17  2.1644419543319320e-17  2.1687124134597195e-17  2.1595391575400489e-17  2.1742134435383673e-17  2.1759390749923292e-17  2.1841235066606571e-17  2.2104529804860953e-17  2.1913507621625978e-17  2.2147027013333128e-17  2.1924719025763760e-17  2.2087770644020499e-17  2.2127328527444668e-17  2.2097044015431551e-17  2.1847899648155198e-17  2.1846661226516773e-17  2.2077647012529189e-17  2.2055351005837076e-17  2.1842525752188564e-17  2.2100384780678404e-17  2.2135076250319276e-17  2.2153349250695543e-17  2.1943419259024929e-17  2.2130197148882248e-17  2.1924384329294635e-17  2.2145933219985921e-17  2.2086007771340153e-17  2.1967417956132902e-17  2.1939427618770550e-17  2.2019810541511496e-17  2.1997130228074262e-17  2.1853498360483244e-17  2.1592968692104461e-17  2.1562486334469905e-17  2.1682580451497932e-17  2.1754229170427101e-17  2.1871032118578172e-17  2.1934049535160927e-17  2.1779592920717821e-17  2.2227691541332125e-17  2.1797524822323333e-17  2.1989757143940994e-17  2.1875273652816146e-17  2.1921189959871828e-17  2.1824740808581272e-17  2.2187086534565601e-17  2.1817032090418507e-17  2.1956717183142954e-17  2.1821441253328819e-17  2.1849772541608377e-17  2.1904435284548873e-17  2.1940524200769496e-17  2.2121372368978646e-17  2.2154578849304376e-17  2.2164267059899679e-17  2.1968099521678365e-17  2.2168379335018009e-17  2.2026013461069966e-17  2.2158133589687184e-17  2.2163028043130348e-17  2.2000664686361724e-17  2.2129009869981275e-17  2.2162337846210742e-17  2.1995565389708369e-17  2.2152158207480744e-17  2.2128656269045944e-17  2.1894135971563643e-17  2.1953765404848786e-17  2.1811744670467560e-17  2.1852105824068316e-17  2.1862481424531617e-17  2.1963905750126371e-17  2.2033758100500981e-17  2.2023794976852035e-17  2.1890020466606772e-17  2.1934301852388737e-17  2.1965880529947982e-17  2.2057248189476933e-17  2.2176368166843578e-17  2.1944456743861680e-17  2.1940231104198395e-17  2.1969372895362395e-17  2.1953891127824172e-17  2.2019569186597144e-17  2.1975211180202747e-17  2.2209396937578088e-17  2.1950413159700356e-17  2.2153462977852178e-17  2.2046962876538909e-17  2.2057365917878294e-17  2.1999816803285209e-17  2.1794858298925371e-17  2.1912495946663503e-17  2.1864252932701757e-17  2.2022656795655369e-17  2.1890852882891276e-17  2.2072372631698059e-17  2.2044878915107832e-17  2.1649461428190511e-17  2.1860617860727155e-17  2.1788612220795399e-17  2.2099065913045876e-17  2.1976706493279135e-17  2.2160081463090158e-17  2.2110468217195507e-17  2.2166866234712478e-17  2.2068865589918472e-17  2.2135951420327401e-17  2.2042150072095195e-17  2.2141301397060492e-17  2.1936017429930497e-17  2.1962164366491265e-17  2.1863016364643552e-17  2.1507202693608060e-17  2.1719744750305094e-17  2.1601353500287805e-17  2.2045426614846964e-17  2.2058886423817604e-17  2.1577386942085147e-17  2.1856695844363309e-17  2.1322987936983840e-17  2.1963089615524927e-17  2.1914238370409934e-17  2.1774794422342957e-17  2.1832065770774959e-17  2.2126179504048531e-17  2.1945380683876927e-17  2.1972794696293622e-17  2.2093802278525312e-17  2.1975105297697809e-17  2.1687123233007866e-17  2.2085766104070414e-17  2.1929510710623771e-17  2.2131038072545036e-17  2.2164224555009649e-17  2.2189703702809318e-17  2.2158816136773355e-17  2.2072942119187377e-17  2.2015773211863315e-17  2.2115319506206123e-17  2.1860898948186555e-17  2.2187441923748727e-17  2.2175370397954867e-17  2.2168922688466190e-17  2.2138919937976777e-17  2.2170106384721947e-17  2.2158176879543048e-17  2.2190124012991588e-17  2.2191196041039270e-17  2.2157036009733780e-17  2.2141390244902007e-17  2.2163429831562793e-17  2.2166045516020535e-17  2.2091692569365241e-17  2.2144915893689710e-17  2.2191303736771797e-17  2.2188803695317175e-17  2.2158018995589550e-17  2.2152122641511801e-17  2.2211948876182463e-17  2.2163044312608174e-17  2.2174205244133039e-17  2.2234840062237184e-17  2.2135018566416057e-17  2.2173058018495876e-17  2.2120038886992117e-17  2.2224624420090257e-17  2.2252627679295122e-17  2.2149488646860183e-17  2.2187173319349998e-17  2.2157686386873234e-17  2.1892994292751618e-17  2.0176708011256534e-17  2.2369482886235261e-17  2.1003859787959847e-17  2.0640160150051867e-17  2.0657712892557020e-17  2.0392721235752642e-17  2.0635534950540289e-17  2.1524709506076834e-17  2.0066575400123214e-17  2.0106393473009832e-17  2.0338700555449081e-17  2.0579354760444922e-17  2.0296753537833974e-17  1.9648693797251259e-17  1.9851447163939643e-17  1.9848603147330234e-17  2.0588190028794096e-17  2.0203602935882152e-17  1.9377595643030767e-17  2.1755772193490596e-17  2.1277811679538609e-17  1.9661848111495486e-17  2.0400724067203914e-17  2.1333255907096267e-17  2.0386061544490654e-17  2.0970049958627914e-17  1.9636070551950243e-17  2.0000000000000001e-17  1.9647363190829589e-17  1.9780581119998926e-17  1.9914303680311952e-17  1.9549592147526558e-17  2.0573828506727729e-17  2.1764859578370432e-17  2.1600009966887561e-17  2.1447694219540585e-17  2.1430915892319307e-17  2.1494409753520965e-17  2.1349544007075520e-17  2.1343346398557574e-17  2.2245915306077683e-17  2.1837698227852461e-17  2.1854317936423496e-17  2.2023432132639617e-17  2.2043395099618796e-17  2.1923419496721116e-17  2.1788440607183890e-17  2.1776287749724190e-17  2.1339943198578650e-17  2.1662077267092327e-17  2.1648500644492001e-17  2.2116455632419921e-17  2.1390214765010470e-17  2.1042193658538778e-17  2.1164279882411233e-17  2.0907955750812087e-17  2.1104997111260778e-17  2.1154052459685239e-17  2.1373876888765898e-17  2.0875292754148288e-17  2.0805356115098678e-17  2.0652157921165238e-17  2.2214094304510290e-17  2.2191209821495692e-17  2.1892427032243139e-17  2.2134015093278660e-17  2.1903673568293902e-17  2.2664371049102584e-17  2.2069569536007775e-17  2.2142316834168769e-17  2.2007486000690090e-17  2.1696317864989243e-17  2.2178718516948641e-17  2.1753886641296551e-17  2.2642672315812712e-17  2.2039778084744311e-17  2.2123093294857610e-17  2.2023822795629390e-17  2.2285056439653539e-17  2.1730460476437623e-17  2.2090263131687464e-17  2.2178588752930648e-17  2.1705084560653742e-17  2.1824502155358087e-17  2.2950523131965855e-17  2.1766980219034800e-17  2.2275285293542511e-17  2.2120153279464995e-17  2.2183047186862305e-17  2.2144020202528890e-17  2.2243750119949344e-17  2.1885004311055415e-17  2.1909624314450699e-17  2.1973591508891777e-17  2.1907591875058740e-17  2.2161830808945346e-17  2.2094573723529478e-17  2.2151584928165421e-17  2.1962451960150203e-17  2.2219316278226661e-17  2.2097846909793413e-17  2.2155460664775316e-17  2.1971596353821964e-17  2.1960137652852355e-17  2.1963989589158889e-17  2.1795310844997043e-17  2.1735156341956474e-17  2.1127023163922034e-17  2.0931968200927658e-17  2.0263686959423688e-17  2.1109618501323337e-17  2.0876369336095343e-17  2.0434424011750743e-17  2.0577084523511359e-17  2.1703565603932193e-17  2.1863625217952956e-17  2.1334111046051956e-17  2.1870557834338677e-17  2.1919836584094308e-17  2.1742617474847333e-17  2.1128054968733723e-17  2.0888458935518002e-17  2.0266535274676063e-17  2.0857674845292508e-17  2.0455366083991541e-17  2.1819576633970026e-17  2.1269608193355967e-17  2.1890802979749433e-17  2.1913197546411579e-17  2.1956080042640259e-17  2.1926976132497370e-17  2.1933389655941101e-17  2.1401917778774243e-17  2.1982984433725084e-17  2.0216035860243509e-17  2.0139475801124033e-17  2.0133236695508278e-17  2.0099136703321736e-17  2.2349224826452434e-17  2.2319040374975601e-17  2.1886393318333521e-17  2.1921379390420112e-17  2.1667773211644809e-17  2.1748355494383776e-17  2.1773424385506287e-17  2.1798632880075481e-17  2.2060812313376877e-17  2.1839710193744036e-17  2.2016631574921704e-17  2.1954965898014378e-17  2.2065747488446105e-17  2.2253461646688875e-17  2.2123682410541046e-17  2.1934722107641715e-17  2.2227018442699999e-17  2.2128186529747840e-17  2.2069290386819589e-17  2.1907825549445070e-17  2.1893260622173186e-17  2.1982717018946114e-17  2.1985374259477023e-17  2.2088222922735474e-17  2.2127982975571060e-17  2.2131121700203362e-17  2.2139455932066456e-17  2.2027842359311996e-17  2.2178351625396045e-17  2.1588207380239999e-17  2.1498129858798593e-17  2.1485264430425149e-17  2.0702601203306345e-17  2.0414057929735083e-17  1.9846399010907113e-17  2.0133007854439008e-17  2.0639309643658916e-17  2.0108631439865414e-17  2.0193261884699987e-17  2.0294734617077438e-17  2.0073912943092361e-17  2.1555879204283220e-17  2.0569334189925260e-17  1.9915724260640041e-17  2.0432020826535931e-17  1.9914128324337637e-17  2.0069598113942984e-17  2.0199044135330831e-17  2.1667580422879351e-17  2.1982254531664709e-17  2.0596650891903785e-17  2.2236061605627595e-17  2.0307751851000465e-17  2.0770802678450231e-17  1.9974079796231003e-17  2.2046780845330810e-17  2.2304450642546075e-17  2.1480993349950814e-17  2.0712267180183331e-17  2.0615041261153823e-17  2.0842067930941990e-17  2.0404559600388054e-17  2.2647015509085558e-17  2.1101467945087644e-17  2.2384527031547981e-17  2.1277128935005558e-17  2.0190382449175168e-17  2.0743943860950964e-17  2.1961439467403071e-17  1.9073624948502773e-17  1.9331325977450307e-17  2.1228389761822079e-17  1.9731376408902432e-17  1.9856206489046150e-17  2.0916644543474555e-17  2.2202726240327312e-17  2.2171233652086490e-17  2.2193240797910085e-17  2.2173343005757339e-17  2.2059479739519302e-17  2.2160854765160000e-17  2.2194820343069714e-17  2.2160933577501638e-17  2.2122096433325538e-17  2.2174127896562276e-17  2.2179608024703846e-17  2.2177878365542312e-17  2.2182671963468868e-17  2.2146148978261685e-17  2.2188067438261012e-17  2.2151784208235922e-17  2.2205178566220144e-17  2.2171472975525583e-17  2.2178000801917422e-17  2.2186666113909118e-17  2.2112340593709966e-17  2.2170596376579067e-17  2.2153983323886263e-17  2.2187984412721728e-17  2.2190605457703518e-17  2.2145765892054147e-17  2.2178599423394512e-17  2.2112702837462875e-17  2.2157567667759548e-17  2.2194196391613770e-17  2.2174415910292340e-17  2.2174514544106007e-17  2.2160691762334874e-17  2.2184714251350850e-17  2.2152339309480533e-17  2.2109893647533296e-17  2.2081861235884549e-17  2.2009258446031953e-17  2.2056807292386992e-17  2.2049209402499475e-17  2.2030442828841153e-17  2.2062197433914879e-17  2.2020517929530825e-17  2.1913720237037791e-17  2.1949049289125702e-17  2.1994229830657717e-17  2.1987370082197916e-17  2.1977153038918056e-17  2.1950279000340741e-17  2.2071648233843678e-17  2.2023036406748875e-17  2.2055743990105767e-17  2.1913670734237514e-17  2.1973016411608447e-17  2.1987046182978913e-17  2.2081254511636174e-17  2.2009531953699269e-17  2.1917753657591208e-17  2.2006236031627816e-17  2.1507203095592937e-17  2.0858072191772456e-17  2.0321977055369781e-17  2.0209235840738825e-17  2.0255403485095128e-17  1.9956195527273630e-17  2.0325256053674362e-17  1.9808245059230407e-17  2.0231208974794789e-17  2.0517450347498447e-17  2.0400827122646508e-17  2.0115810020486807e-17  1.9812092079157111e-17  1.9937448855623665e-17  2.0000000000000001e-17  1.9926217019499237e-17  1.9966618888795339e-17  1.9866623615858980e-17  1.9850950471923806e-17  2.0194818154022445e-17  2.0139449981085257e-17  2.0000000000000001e-17  2.0000000000000001e-17  2.0163741951485320e-17  1.9905748608381586e-17  1.9714470129729430e-17  2.0527262341670234e-17  2.0000000000000001e-17  1.9709745979830353e-17  2.0588146820970775e-17  2.0008922572513756e-17  2.0012344517805460e-17  1.9652203737469912e-17  1.9788546627153151e-17  2.0000000000000001e-17  2.0000000000000001e-17  1.9882054111408679e-17  2.0046380449403090e-17  2.0056951186433995e-17  2.0078532448020390e-17  2.0031483403757683e-17  2.0047121402290767e-17  1.9927662028955148e-17  2.0000000000000001e-17  2.0149220815611077e-17  2.0387885478406969e-17  2.1063516047001769e-17  2.0353901073226213e-17  2.0765362214401623e-17  2.1492556546858411e-17  2.0608606404553458e-17  2.1500258438763315e-17  2.0101901701145305e-17  2.1541165808649571e-17  2.0917510319676823e-17  2.0312660142703310e-17  2.0372995700332067e-17  2.1477315639347888e-17  2.1759114458100944e-17  2.0514226493051502e-17  2.0676369536472636e-17  2.1589074765584072e-17  2.1663337601319042e-17  2.0000000000000001e-17  2.0000000000000001e-17  1.9939591770690709e-17  1.9999003142413872e-17  2.0000000000000001e-17  1.9953600308095621e-17  1.9922694339413561e-17  2.0032388680247052e-17  2.0130311071595500e-17  2.0038838375437716e-17  2.0000000000000001e-17  2.0000000000000001e-17  2.0339771588588390e-17  2.0355600643419131e-17  2.0000000000000001e-17  2.0000000000000001e-17  2.0000000000000001e-17  1.9953888983950665e-17  2.0134357456734287e-17  2.0000000000000001e-17  2.0000000000000001e-17  2.0065859740486781e-17  2.0000000000000001e-17  2.0000000000000001e-17  1.9884748743594102e-17  2.0011176161226442e-17  1.9684601181254168e-17  2.0034050619839488e-17  2.0144144750595