<?xml version="1.0"?>
<VTKFile type="UnstructuredGrid"  version="0.1"  >
<UnstructuredGrid>
<Piece  NumberOfPoints="5778" NumberOfCells="26789">
<Points>
<DataArray  type="Float64"  NumberOfComponents="3"  format="ascii">50.541777 11.590053 -16.8681695  51.07306575 11.59046 -16.336474  51.07306575 11.06899475 -16.85793925  51.875243 12.1786655 -16.94609125  51.6043545 10.5479365 -16.847709  51.6043545 11.06940175 -16.32624375  52.40653175 11.65760725 -16.935861  51.6043545 11.590867 -15.8047785  50.80217725 10.48119625 -15.7166265  55.333333 4.369342 -13.450236  54.6666755 5.40297375 -13.9008685  54.6666755 5.39279375 -13.01557025  55.333333 5.046628249999999 -13.1484675  55.333333 5.723914499999999 -12.846699  54.6666755 6.08026 -13.5991  54.6666755 6.07008 -12.71380175  54.000018 6.4162455 -12.5809045  54.000018 6.426425500000001 -13.46620275  54.000018 6.436605500000001 -14.351501  55.333333 5.05680825 -14.03376575  55.333333 5.734094499999999 -13.73199725  55.333333 5.7442745 -14.6172955  54.6666755 6.09044 -14.48439825  55.333333 7.078487 -12.243162  54.6666755 6.757546250000001 -13.2973315  55.333333 7.088667 -13.12846025  55.333333 6.411380749999999 -13.43022875  54.6666755 6.767726250000001 -14.18262975  55.333333 6.421560749999999 -14.315527  55.333333 7.098847 -14.0137585  54.6666755 6.747366250000001 -12.41203325  55.333333 6.401200749999999 -12.5449305  55.333333 7.119207 -15.784355  54.6666755 6.777906250000001 -15.067928  55.333333 7.109027 -14.89905675  55.333333 6.431740749999999 -15.20082525  52.666703 5.754004 -12.918647  52.666695 6.39448425 -12.548677  53.3333605 6.77170075 -13.1210345  52.00002725 6.919117 -13.33537125  51.3333515 8.08423 -13.7520955  52.00001924999999 7.559597249999999 -12.96540125  52.66668475 7.93681375 -13.53775875  54.000018 7.7893975 -13.323422  53.3333525 7.412181 -12.7510645  52.666687 7.0349645 -12.178707  52.00002725 6.084198 -12.7503115  51.3333515 7.249311 -13.16703575  52.00001924999999 6.72467825 -12.3803415  51.3333515 6.414391999999999 -12.581976  55.333333 10.641026 -17.025641  55.333333 9.76057125 -16.7153195  55.333333 10.43696725 -16.20128  53.99999975 9.858859499999999 -16.112721  52.66666650000001 9.076692999999999 -15.199801  53.99999975 8.978404749999999 -15.8023995  53.99999975 9.65480075 -15.28836  55.333333 10.2329085 -15.376919  55.333333 9.5565125 -15.8909585  55.333333 8.8801165 -16.404998  53.99999975 8.774346 -14.9780385  53.99999975 9.450741999999998 -14.463999  55.333333 8.471999 -14.756276  55.333333 8.67605775 -15.580637  55.333333 9.352453749999999 -15.0665975  55.333333 9.148395000000001 -14.2422365  55.333333 7.99966175 -16.0946765  55.333333 7.795603 -15.2703155  53.99999975 8.097949999999999 -15.492078  54.802177 10.96853025 -16.200873  53.46884375 10.18636375 -15.287953  54.271021 11.2960345 -15.376105  54.802177 10.7644715 -15.376512  54.802177 11.172589 -17.025234  53.46884375 10.3904225 -16.112314  54.271021 11.50009325 -16.200466  54.271021 11.704152 -17.024827  52.93768775 10.9219855 -16.111907  52.1355105 10.33378 -15.50228975  52.1355105 9.812314749999999 -16.023755  51.33333325 9.7455745 -14.8926725  53.3333605 6.08512475 -12.74977575  54.000018 7.1028215 -12.95216325  53.3333525 6.725605 -12.37980575  53.3333445 7.36608525 -12.00983575  54.6666755 7.433942249999999 -12.783292  54.000018 7.1130015 -13.8374615  54.6666755 7.444122249999999 -13.66859025  55.333333 7.775243 -13.499719  55.333333 7.785423 -14.38501725  54.6666755 8.13069825 -14.039849  55.333333 8.461819 -13.87097775  54.6666755 8.807094249999999 -13.5258095  54.6666755 7.45430225 -14.5538885  53.3333605 6.09530475 -13.635074  52.66668475 7.415348499999999 -14.059224  53.33334225 8.433045249999999 -14.2616115  52.00000900000001 8.580461499999998 -14.47594825  55.333333 11.17307725 -16.49358975  53.33334225 7.75664925 -14.775651  50 -12.498932 -12.501068  50 -11.2199275 -12.523315  50.66665925 -11.453014 -12.2356135  50 -11.740888 -12.0023545  50 -10.982844 -11.503641  50 -10.4618835 -12.0246015  50.66665925 -10.69497 -11.7369  51.3333185 -10.407096 -11.970159  50.66665925 -10.1740095 -12.2578605  50 -9.940923 -12.545562  50 -11.9779715 -13.0220285  50 -11.457011 -13.542989  50 -10.698967 -13.0442755  50.66665925 -10.9320535 -12.756574  50 -10.41509 -14.58491  50.66665925 -9.8901325 -13.798495  50 -10.1780065 -13.565236  50.66665925 -10.411093 -13.2775345  50.66665925 -9.653048999999999 -12.778821  51.3333185 -9.8861355 -12.4911195  51.3333185 -9.365175000000001 -13.01208  50 -10.9360505 -14.0639495  50 -9.466756 -10.506214  50.66665925 -9.178882 -10.739473  50.66665925 -9.4159655 -11.759147  50.66665925 -9.936926 -11.2381865  51.3333185 -9.1280915 -11.992406  51.3333185 -9.649051999999999 -11.4714455  51.3333185 -8.891007999999999 -10.972732  50 -9.703839500000001 -11.525888  50 -10.2248 -11.0049275  52.666637 -8.31526 -11.43925  51.99997775 -8.603134000000001 -11.205991  51.99997775 -8.840217500000001 -12.225665  51.99997775 -9.361177999999999 -11.7047045  50.66660425 -12.0022775 -11.7407965  51.3332085 -11.505623 -10.980525  51.3332635 -10.9563595 -11.475342  50.66660425 -11.2442335 -11.242083  50.66660425 -9.7281455 -10.244656  51.3332635 -10.1983155 -10.9766285  51.3332085 -9.989535 -9.983098  51.3332635 -9.4402715 -10.477915  50.66660425 -10.4861895 -10.7433695  51.3332085 -10.747579 -10.4818115  52.666417 -10.512314 -9.459982  51.99986775000001 -9.701661 -10.216357  52.666472 -9.9630505 -9.954799  51.99986775000001 -10.459705 -10.7150705  51.99992275 -9.910441499999999 -11.2098875  52.666527 -9.413786999999999 -10.449616  51.99992275 -9.152397499999999 -10.711174  51.99981275 -10.2509245 -9.721540000000001  51.99981275 -11.0089685 -10.2202535  52.66658200000001 -8.864523500000001 -10.944433  48.962344 -14.88991 -19.147746  47.64947875 -14.82313925 -18.527382  48.1803365 -14.82383975 -17.99582375  48.1802375 -14.2916235 -18.528139  47.398131 -13.693337 -17.908532  46.86737225 -14.22485275 -17.907775  47.39823 -14.22555325 -17.37621675  47.398329 -14.7577695 -16.8439015  46.86747124999999 -14.757069 -17.37545975  46.3366135 -14.7563685 -17.907018  48.43158525 -15.42142575 -19.146989  47.9008265 -15.9529415 -19.146232  48.962443 -15.42212625 -18.61543075  48.962542 -15.9543425 -18.0831155  48.43168425 -15.953642 -18.61467375  45.833918 -12.496764 -16.669318  46.08526575 -13.62656625 -17.288168  46.6161235 -13.62726675 -16.75660975  46.61602449999999 -13.0950505 -17.288925  55.333333 -12.769231 -14.897436  53.99999975 -12.01922025 -13.993769  53.99999975 -12.70165625 -14.298344  55.333333 -12.62752325 -14.0470735  55.333333 -12.4858155 -13.196711  53.99999975 -11.8775125 -13.1434065  53.99999975 -12.5599485 -13.4479815  52.66666650000001 -12.6340815 -13.699252  52.66666650000001 -11.9516455 -13.394677  52.66666650000001 -11.2692095 -13.090102  55.333333 -12.086795 -14.592861  55.333333 -11.94508725 -13.7424985  53.99999975 -11.33678425 -13.689194  55.333333 -11.404359 -14.288286  55.333333 -10.039487 -13.679136  53.99999975 -10.65434825 -13.384619  55.333333 -10.58021525 -13.1333485  55.333333 -11.26265125 -13.4379235  55.333333 -11.8033795 -12.892136  55.333333 -11.1209435 -12.587561  53.99999975 -11.1950765 -12.8388315  55.333333 -10.721923 -13.983711  52.66666650000001 -12.350666 -11.998527  52.66666650000001 -11.80993775 -12.5443145  52.66666650000001 -12.49237375 -12.8488895  53.99999975 -12.41824075 -12.597619  53.99999975 -11.73580475 -12.293044  55.333333 -12.34410775 -12.3463485  55.333333 -11.66167175 -12.0417735  51.33333325 -11.88407075 -12.795585  51.33333325 -12.56650675 -13.10016  51.33333325 -12.424799 -12.2497975  37.464839 -16.663609 -20.871552  36.422159 -16.66432 -21.913521  37.4678485 -15.6254355 -21.906716  37.901211 -17.89983 -23.1989595  37.470858 -14.587262 -22.94188  42.58968 -17.010565 -23.399754  40.011419 -16.861986 -22.126595  40.01128199999999 -15.7963155 -23.192403  41.0742075 -15.797863 -22.127929  41.5268915 -18.074688 -23.39842  40.463966 -18.0731405 -24.462894  41.5267545 -17.0090175 -24.464228  40.463829 -17.00747 -25.528702  40.464103 -19.138811 -23.397086  39.558735 -14.585161 -20.856104  53.99999975 -12.18069575 -14.8193045  52.66666650000001 -11.430685 -13.9156375  52.66666650000001 -12.113121 -14.2202125  52.66666650000001 -11.5921605 -14.741173  53.99999975 -11.49825975 -14.5147295  53.99999975 -10.13338775 -13.9055795  53.99999975 -10.81582375 -14.2101545  52.66666650000001 -10.748249 -13.6110625  52.66666650000001 -10.9097245 -14.436598  52.66666650000001 -10.2272885 -14.132023  51.33333325 -11.36311025 -13.3165455  51.33333325 -12.04554625 -13.6211205  51.33333325 -10.84214975 -13.837506  51.33333325 -11.52458575 -14.142081  51.33333325 -10.32118925 -14.3584665  51.33333325 -11.00362525 -14.6630415  54.8024415 -13.3007035 -14.896855  53.46910825000001 -12.71216825 -14.8187235  53.46910825000001 -13.23312875 -14.297763  54.27155 -13.832176 -14.896274  52.135775 -12.6445935 -14.2196315  52.135775 -13.165554 -13.698671  51.6048835 -12.6551055 -14.740011  50.80244175 -12.57701875 -13.6205395  50.80244175 -12.05605825 -14.1415  50.80244175 -11.53509775 -14.6624605  52.135775 -12.123633 -14.740592  52.40732525 -13.77511325 -14.8175615  52.93821675 -13.24364075 -14.8181425  38.964471 -17.90121 -22.134319  40.0098485 -17.900698 -21.0894535  39.555594 -16.662585 -18.781821  38.5102165 -16.663097 -19.8266865  39.5571645 -15.623873 -19.8189625  38.511787 -15.624385 -20.863828  38.9674805 -16.8630365 -23.169483  38.5147965 -14.5862115 -21.898992  54.8024415 -13.15899575 -14.0464925  38.962949 -18.938443 -21.098608  38.5086945 -17.70033 -18.7909755  37.461795 -18.738075 -18.80013  37.463317 -17.700842 -19.835841  49.4812175 -10.9342045 -14.584578  50.27157075 -11.53445175 -15.1939775  50.27157075 -12.05541225 -14.673017  50.5431415 -13.6957345 -14.761124  49.75278825 -12.57452675 -14.672685  50.5431415 -13.174774 -15.2820845  50.5431415 -12.6538135 -15.803045  49.75278825 -12.05356625 -15.1936455  48.962435 -11.453319 -14.584
[...]
<PointData  Scalars="c_HbO2"> 
<DataArray  type="Float64"  Name="c_HbO2"  format="ascii">2.2895631081928581e-17  2.2678978024650152e-17  2.2964549745925099e-17  2.2106605078897580e-17  2.2873198061247420e-17  2.2180001043539614e-17  2.2064143111542740e-17  2.2829231907612020e-17  2.0490782585427543e-17  2.2878031789433932e-17  2.2318570215780399e-17  2.2345106867986316e-17  2.1391271950237606e-17  2.1557701899444063e-17  2.2423537519073298e-17  2.2170749869064092e-17  2.2250602854946254e-17  2.2088278946327524e-17  2.2104848443109498e-17  2.2380999405130316e-17  2.2873179505631341e-17  2.2005253870027677e-17  2.2153029116299999e-17  2.2469234883337771e-17  2.2372593940300098e-17  2.1901123537577166e-17  2.2147772934509274e-17  2.2301144041192439e-17  2.2450128731781749e-17  2.2192171560515923e-17  2.2356712334484115e-17  2.2426426163801099e-17  2.2251121821510213e-17  2.2292474917859244e-17  2.2040788573599897e-17  2.2127457800902059e-17  2.2677255120498781e-17  2.3045421585722421e-17  2.2362915155452986e-17  2.2406522349351369e-17  2.2015858449648731e-17  2.2754244744963133e-17  2.2314354792866845e-17  2.2050409488311077e-17  2.2707896706549227e-17  2.1200538186149354e-17  2.2268226962247688e-17  2.1874801287533247e-17  2.2395160684661424e-17  2.2232069484549647e-17  2.2121745602770679e-17  2.1968253456428615e-17  2.2534777371982077e-17  2.2085005924932707e-17  2.1919760333976569e-17  2.2409668617166564e-17  2.2323691900468232e-17  2.2204730824504674e-17  2.2261592413781657e-17  2.2344784363506745e-17  2.2192592394616421e-17  2.2196661548137292e-17  2.2227039290940140e-17  2.2094431025965715e-17  2.1962790124812004e-17  2.2234099191120798e-17  2.2041522304297741e-17  2.2236059673037708e-17  2.2203109060419996e-17  2.2285577586455305e-17  2.2119110378596809e-17  2.2274416177921578e-17  2.2299936568136786e-17  2.2834631252770918e-17  2.2169768671256200e-17  2.2510358416845225e-17  2.2136758697483695e-17  2.2526279191034562e-17  2.1485181020185590e-17  2.1499935484682319e-17  2.2361100117191269e-17  2.2375469052692430e-17  2.2036810531027078e-17  2.2233588140015734e-17  2.2003652618310695e-17  2.2160418628402519e-17  2.2278912310652358e-17  2.2243884043533771e-17  2.2272320232636327e-17  2.1996003172720219e-17  2.2400478109331424e-17  2.2165483917880014e-17  2.2282457435660119e-17  2.2328480443477291e-17  2.2164920871551411e-17  2.2067053864154260e-17  2.2370178217832556e-17  2.2516288284295003e-17  2.1474166748258312e-17  2.2366370349626319e-17  2.3158910541015334e-17  1.5507861703397329e-17  2.4932372150962336e-17  1.9729835026220899e-17  2.1823181939371031e-17  2.0748629554781017e-17  2.2970735727506694e-17  2.2017409328707882e-17  2.3735125743503481e-17  2.0938279110459711e-17  2.4278766964137955e-17  2.2788546908314421e-17  1.8894497708784168e-17  2.4147101474360802e-17  2.2874892651692710e-17  2.3333073086959700e-17  1.4241415893712389e-17  2.4268369292813508e-17  2.3297314137659950e-17  2.2096340205471793e-17  2.1958987854423736e-17  2.4596702180813073e-17  2.2495225552051556e-17  2.2749011403892334e-17  2.2593957255767752e-17  2.1972379518325389e-17  2.2118085030752268e-17  2.1953641094353366e-17  2.2230473395002138e-17  2.1658955469541265e-17  2.1244051994179243e-17  2.2694093939138555e-17  2.2317770064866395e-17  2.2053170604932403e-17  2.2327576210875977e-17  2.3032074681220471e-17  2.2062152771921946e-17  2.2199948113140455e-17  2.3498342058398102e-17  2.2486603104529079e-17  2.2076565348506159e-17  2.2296955377576193e-17  2.2485925543569651e-17  2.2493886371941453e-17  2.2648024515595484e-17  2.2633160980097098e-17  2.2155967893726337e-17  2.2559560227581622e-17  2.2193229402282543e-17  2.2990262907896636e-17  2.1134262616472901e-17  2.2359324936052451e-17  2.2741139213613978e-17  2.2093053473253386e-17  2.2966500588990464e-17  2.2200748518434682e-17  2.2224066961270419e-17  2.2204547382609251e-17  2.2227047549865902e-17  2.2213169959473353e-17  2.2239150432556881e-17  2.2210673946103832e-17  2.2204739273158799e-17  2.2232916618257017e-17  2.2215520726916003e-17  2.2229614836450039e-17  2.2200962065203764e-17  2.2256864251257128e-17  2.2193303092456773e-17  2.2246008219900902e-17  2.2241303348057950e-17  2.2253389199644770e-17  2.2174124091035963e-17  2.2164709644959232e-17  2.2208027089720520e-17  2.1923703313877782e-17  2.2277388998243341e-17  2.2435677943504762e-17  2.2272119796495953e-17  2.2389270205686484e-17  2.2355588450393060e-17  2.2170091415280529e-17  2.2382793935919794e-17  2.1836265957102267e-17  2.1784496071297173e-17  2.2371392051414070e-17  2.2349183343597216e-17  2.2390481069311319e-17  2.2248295264907636e-17  2.2208615083189420e-17  2.2230774030175268e-17  2.1939827530654545e-17  2.1972165993758115e-17  2.2184597162112591e-17  2.2198391124151228e-17  2.2035059888250659e-17  2.1973730259929924e-17  2.1977697159710048e-17  2.2058175412687834e-17  2.2269066089482901e-17  2.2262146551851206e-17  2.2171259702603330e-17  2.2183603874183888e-17  2.2395027476877645e-17  2.1094800867724044e-17  2.1734726226990915e-17  2.2218914378432613e-17  2.2216822408888355e-17  2.2220474488850583e-17  2.2217286292386130e-17  2.2217304225365198e-17  2.2219245223279441e-17  2.2219401099208406e-17  2.2218804578090397e-17  2.2218069449482009e-17  2.2216228093269039e-17  2.2216218598140584e-17  2.2222409067306155e-17  2.2217812821008071e-17  2.2218478201152130e-17  2.2217718853740061e-17  2.2352343239583660e-17  2.2197177588578940e-17  2.2469888269669599e-17  2.2170970752507113e-17  2.2141700000028269e-17  2.2098276778222230e-17  2.2361009014368935e-17  2.2114713115145730e-17  2.2289645344288722e-17  2.1814268432348509e-17  2.2375089962276914e-17  2.1504205026785965e-17  2.2333742294033667e-17  2.1228072151241174e-17  2.2470006498969781e-17  2.1442846915011388e-17  2.2815791006453358e-17  2.2340932186816321e-17  2.1821668409065448e-17  2.2214354423202544e-17  2.2755830399449282e-17  2.2388220981311481e-17  2.3051029058967641e-17  2.0486603048802726e-17  2.0349918361578436e-17  2.0404047990891385e-17  2.2607183282545141e-17  2.1992496259207167e-17  2.2122919200474981e-17  2.2218649884973104e-17  2.2217250624792430e-17  2.2219303959656188e-17  2.2216201067653705e-17  2.2220352036996283e-17  2.2222083844027778e-17  2.2218596053262201e-17  2.2216753152626494e-17  2.1953790790088527e-17  2.2218930260629193e-17  2.2213737326376470e-17  2.2218615973510585e-17  2.2220706263085218e-17  2.4590624922555782e-17  2.2522345083393445e-17  2.0318296757629630e-17  2.2808221157571461e-17  2.1404236275332846e-17  2.2550199456305415e-17  2.2526712149215332e-17  2.4453840032994253e-17  2.0469068816906530e-17  2.6792218982682515e-17  2.1750153567901921e-17  2.2300754415407566e-17  2.2265156204785777e-17  2.2272723050673996e-17  2.2040292624639585e-17  2.2218828325150740e-17  2.1986558079780842e-17  2.2282182901527360e-17  2.2031333862738452e-17  2.2867137990432002e-17  2.2524129199234416e-17  2.1129304018018879e-17  2.4033810120373799e-17  2.1757946328011772e-17  2.2208185194527770e-17  2.2261340721842046e-17  2.2196091573871794e-17  2.2239268970975400e-17  2.2216824771780927e-17  2.2236833898369864e-17  2.2126430513352498e-17  2.2101127491918639e-17  2.2218672151088136e-17  2.2375491984382178e-17  2.2306494478429003e-17  2.2112947412156027e-17  2.2257426377100614e-17  2.2125752981618924e-17  2.2266793547976242e-17  2.2137354177790770e-17  2.2224657625241212e-17  2.2238923381883080e-17  2.2205669312705193e-17  2.2211382506113991e-17  2.2283207993138526e-17  2.2198436542507041e-17  2.2244544723747675e-17  2.2199080381841488e-17  2.2284779550969536e-17  2.2192329559151273e-17  2.2219428232280268e-17  2.2254252326545372e-17  2.2202732542191979e-17  2.2228170612039329e-17  2.2207143865219700e-17  2.2206095894776873e-17  2.2212251182779267e-17  2.2250413957575470e-17  2.2214654613641516e-17  2.2253889123142958e-17  2.1996193912754723e-17  2.2120819188715874e-17  2.2404081196159540e-17  2.2202018168193970e-17  2.2323168912369750e-17  2.2100759275037629e-17  2.2204009741226236e-17  2.1891193824729589e-17  2.2228919654716303e-17  2.2169646326833459e-17  2.2268862128826308e-17  2.2198654337286918e-17  2.2165214564601406e-17  2.2274474491753150e-17  2.2326494934672126e-17  2.2202493395484294e-17  2.2124422001210662e-17  2.2041528144003778e-17  2.2300996862833666e-17  2.2271716042082352e-17  2.2175097555096916e-17  2.2180121196765118e-17  2.2232308642177841e-17  2.2285728721253649e-17  2.2191848418148456e-17  2.2282099914943793e-17  2.2371365397000975e-17  2.2261298669288708e-17  2.2198107731109197e-17  2.2230682717373097e-17  2.2229779875147076e-17  2.2228650305821441e-17  2.2821080502633443e-17  2.2188318958004376e-17  2.2285578907298361e-17  2.2188143411670061e-17  2.2502264638413020e-17  2.2144381662770693e-17  2.2192925393604253e-17  2.1748785168832278e-17  2.2445303726001484e-17  2.2135381782323456e-17  2.1851448388308503e-17  2.1137711537460263e-17  2.2706922767737551e-17  2.2291242956301607e-17  2.2308210636895915e-17  2.2204259272298066e-17  2.2234222940410955e-17  2.2213578463548358e-17  2.2224471702220073e-17  2.2218138449863943e-17  2.2217657769248115e-17  2.2215003315925882e-17  2.2219085686157282e-17  2.2220866503458576e-17  2.2224874798575666e-17  2.2224045544687627e-17  2.2216788895339942e-17  2.2216308860986483e-17  2.2244738113564249e-17  2.2052551657833251e-17  2.2235349297902141e-17  2.2212926345889422e-17  2.2203397054065177e-17  2.2165860059846613e-17  2.2248172154608587e-17  2.2222469198863716e-17  2.2268088460661574e-17  2.2283408984128402e-17  2.2321607137866729e-17  2.2257107642795934e-17  2.2150607299238426e-17  2.2544732527918660e-17  2.2682170687343702e-17  2.2565328803924423e-17  2.2117353054475229e-17  2.2118941751795770e-17  2.2008265342646431e-17  2.2222649492023538e-17  2.2221621483077476e-17  2.2235481010214029e-17  2.2211099750031652e-17  2.2220780592170908e-17  2.2220108203385206e-17  2.2197741115177957e-17  2.2227083549061015e-17  2.2209818653064109e-17  2.2225456686560436e-17  2.2224795711971831e-17  2.2209074760234662e-17  2.2230860993165405e-17  2.2219388798566378e-17  2.2214566266021114e-17  2.2229160223121132e-17  2.2229216459384788e-17  2.2242462197219733e-17  2.2225723914601025e-17  2.2245251081753141e-17  2.2224296682252780e-17  2.2224464066527441e-17  2.2229833937172530e-17  2.2225671465990479e-17  2.2215344179808264e-17  2.2202106191957974e-17  2.2224975937503197e-17  2.2246142953193782e-17  2.2221778053019143e-17  2.2248514481759231e-17  2.2221184496977186e-17  2.2218502611958651e-17  2.0136163253740645e-17  2.2195412671900577e-17  2.2958870110388808e-17  2.2829428021015589e-17  2.3268922139979426e-17  2.2345295381806356e-17  2.2377419086334383e-17  2.2391325081566055e-17  2.1971995965106641e-17  2.2069689624772013e-17  2.1658035262097707e-17  2.2337877269716695e-17  2.2381497275836756e-17  2.2296429779582977e-17  2.1878061613120426e-17  2.2337726920270502e-17  2.1646148192420273e-17  2.2131373059304337e-17  2.2296573306177099e-17  2.2391747394834800e-17  2.2265536456233335e-17  2.2400456672564726e-17  2.2396569250450692e-17  2.1908324614181641e-17  2.2317680481258684e-17  2.1819020223914695e-17  2.2180129845473346e-17  2.2099836841501616e-17  2.2798607037168426e-17  2.1993629821252101e-17  2.2125429798203299e-17  2.2192315891676539e-17  2.2934895591412109e-17  2.2048741876776121e-17  2.2126846678495010e-17  2.2223890956209087e-17  2.2218318819082375e-17  2.2224517067743711e-17  2.2213457214930504e-17  2.2220190751520433e-17  2.2223960243464575e-17  2.2219961232258495e-17  2.2219185828119242e-17  2.2215113604868691e-17  2.2217839913276664e-17  2.2210791028279463e-17  2.2084289546880050e-17  2.2674309865232039e-17  2.2054455017666412e-17  2.2272034000513587e-17  2.2238891446708776e-17  2.2304970128305242e-17  2.2279110127305185e-17  2.2401353781031034e-17  2.2248642068374789e-17  2.2418312675336706e-17  2.2225824011102461e-17  2.2150050122586665e-17  2.2187271247797033e-17  2.2204234018488126e-17  2.2165173477396891e-17  2.2180575917468944e-17  2.2309260024641944e-17  2.2228932086517904e-17  2.2480957170861408e-17  2.1778705334675174e-17  2.2044665160415239e-17  2.2130194305703799e-17  2.2640414697850834e-17  2.2402559580536164e-17  2.2029258239560348e-17  2.2167352569745325e-17  2.2248526464274862e-17  2.2376960976071405e-17  2.2261886739289614e-17  2.2354379988640119e-17  2.2579887775950278e-17  2.2222999202877336e-17  2.2283304580698678e-17  2.2220279287945877e-17  2.2218095484224941e-17  2.2218923078457900e-17  2.2218466260802701e-17  2.0144207802547481e-17  2.2701387137883657e-17  2.2679271639423871e-17  2.2397185782151926e-17  2.2056817047204636e-17  2.2018261073877682e-17  2.2417970032369112e-17  2.2200882502061319e-17  2.2322145094033336e-17  2.2408062599609341e-17  2.2255995451347787e-17  2.2348365477233993e-17  2.2289592044983076e-17  2.2313492817975174e-17  2.2015698282905443e-17  2.1802040295105488e-17  2.2218285773554345e-17  2.2219279556138544e-17  2.2217848243888207e-17  2.2219219556893642e-17  2.2219025063483280e-17  2.2215671483958509e-17  2.2220291131857513e-17  2.2219033097024301e-17  2.2219127178501335e-17  1.9983987595655890e-17  1.8908982854047486e-17  2.3421091837610607e-17  2.1651985227704634e-17  2.1962896654810894e-17  2.2606318902699922e-17  2.2558349547800762e-17  2.1205275818625216e-17  2.2789441873853479e-17  2.2579519606163623e-17  2.2709968376648927e-17  2.2417190561826536e-17  2.2408427738243244e-17  2.2347586229426750e-17  2.2546172862039941e-17  2.2222141830104145e-17  2.1920167467381731e-17  2.2071596479304017e-17  2.1260954866941136e-17  2.2702129646693461e-17  2.2218742618734326e-17  2.2218065683307896e-17  2.2215513257395417e-17  2.2541875039954387e-17  2.2213632089348660e-17  2.2219595921328696e-17  2.2216227901877184e-17  2.2215626177421304e-17  2.2219644290082411e-17  2.2220011503787038e-17  2.2215920158398960e-17  2.2218251268062651e-17  2.2219733924123800e-17  2.2220196744234499e-17  2.2218494692966970e-17  2.2214948075869571e-17  2.2222438589980279e-17  2.2227106655234987e-17  2.2210170832061075e-17  2.2226382357924497e-17  2.2224543723146021e-17  2.2212717657542554e-17  2.2220446822454687e-17  2.2224018283520768e-17  2.2218860980417391e-17  2.2224733074500436e-17  2.2220818570859525e-17  2.2217884476323334e-17  2.2214795204126986e-17  2.2223077114706314e-17  2.2223210812017854e-17  2.2223948600078317e-17  2.2205348706535305e-17  2.2223017993844666e-17  2.2217208250403173e-17  2.2219665085272572e-17  2.2217374253318078e-17  2.2227332893014582e-17  2.2216627507874527e-17  2.2213601886345043e-17  2.2214971705358081e-17  2.2225217162904363e-17  2.2218593795237356e-17  2.2219549948860112e-17  2.2220550357705150e-17  2.2215040467097552e-17  2.2221901012081385e-17  2.2216408644647860e-17  2.2226093582535945e-17  2.2218343001131812e-17  2.2210289192441321e-17  2.2217979080895692e-17  2.2220333342161502e-17  2.2216526137708014e-17  2.2224843742105851e-17  2.2221978714722604e-17  2.2216373835115303e-17  2.2210538664677522e-17  2.2215883445846039e-17  2.2218987657038202e-17  2.2218824022253700e-17  2.2221090762801660e-17  2.2225607680349000e-17  2.2209669124348555e-17  2.2224828819784897e-17  2.2211608692533996e-17  2.2216025782393230e-17  2.2200403309050978e-17  2.2195885565798260e-17  2.2190352658175515e-17  2.2215054480428894e-17  2.2228096457923644e-17  2.2253060830872970e-17  2.2229221609770167e-17  2.2179056821193453e-17  2.2198734134450150e-17  2.2193962787763369e-17  2.2202825113083385e-17  2.2209278205877575e-17  2.2221212868551508e-17  2.2233233219977509e-17  2.2458496543473801e-17  2.2215274716104371e-17  2.2303768190635313e-17  2.2139324674861458e-17  2.2325675121851877e-17  2.2198470769515099e-17  2.2185486233991121e-17  2.2427390419745612e-17  2.2344224094268880e-17  2.2331108596834383e-17  2.2331325219404607e-17  2.2623961382392076e-17  2.2165102278554848e-17  2.2000582851862233e-17  2.2248233506782866e-17  2.2321603519982843e-17  2.2356061826948385e-17  2.1939164994871299e-17  2.2198914610134242e-17  2.2202793436989713e-17  2.2244128104589319e-17  2.1579616168074927e-17  2.2118029019231318e-17  2.2399680716537842e-17  2.2319172636463950e-17  2.1918173982361565e-17  2.1925441309148979e-17  2.2120842109661281e-17  2.2215686118734526e-17  2.2219545591868374e-17  2.2217504825323463e-17  2.2220807860330794e-17  2.2216017719540559e-17  2.2212636672782790e-17  2.2209716852824500e-17  2.2237614553315293e-17  2.2219476457635856e-17  2.2236792224634114e-17  2.2216250701774412e-17  2.2214679874750304e-17  2.2209686411748477e-17  2.2217307900158271e-17  2.2222078380032388e-17  2.2217918492834247e-17  2.2230509383354241e-17  2.2210506953011977e-17  2.2218668441789117e-17  2.2212778376465752e-17  2.2216410048764555e-17  2.2220871318006436e-17  2.1468441986153121e-17  2.8299419250265787e-17  1.9338109679980832e-17  2.1980697978804337e-17  2.5018570295524351e-17  2.2389725523638913e-17  2.2547641268163661e-17  2.2285437688952469e-17  2.1141983914936373e-17  2.4632093528652873e-17  2.2219092100314274e-17  1.5261426382109931e-17  2.3352656783292925e-17  2.2168702809001945e-17  2.2307491297275430e-17  2.1868768283874637e-17  2.1327673339546802e-17  2.2117703641628988e-17  2.2386464784909084e-17  2.2073226326906409e-17  2.2210937679083818e-17  2.2218930161316862e-17  2.2222291248749385e-17  2.2219175770937937e-17  2.2219327915200955e-17  2.2218873597189960e-17  2.2210832756403690e-17  2.2171718563992709e-17  2.2327936109727909e-17  2.2108434370007729e-17  2.2222151348359062e-17  2.2365244937666923e-17  2.2197552114775926e-17  2.2220188530849338e-17  2.2299554213765317e-17  2.0809163021533653e-17  2.5115230566066766e-17  2.2794643830253829e-17  2.4582577391498051e-17  2.1656485583937770e-17  2.2050121023837435e-17  2.1890930922504554e-17  2.2217580680363967e-17  2.2214791731536743e-17  2.2254911046991359e-17  2.2298433786965537e-17  2.2307321579195320e-17  2.2263566758501356e-17  2.2191413965726280e-17  2.1813947651895187e-17  2.2368537852441653e-17  2.1886366056932513e-17  2.2307069585437290e-17  2.2246328830138259e-17  2.2157011289722414e-17  2.3326012874424205e-17  2.4442475676251723e-17  1.8913399043092549e-17  2.3009077235135686e-17  2.2305913505657266e-17  2.2282484303324654e-17  2.1773868591725213e-17  2.2889277574217496e-17  2.1794572318230545e-17  2.1752088460964577e-17  2.2387913726413969e-17  2.2150547796705769e-17  2.2177904959636353e-17  2.2256142440653046e-17  2.2415059431841818e-17  2.2208895188264250e-17  2.2270335457356683e-17  2.2268291726204556e-17  2.2080951081801661e-17  2.2212632250311572e-17  2.2252740698226233e-17  2.2361647441636327e-17  2.2368161794322821e-17  2.2252329204533581e-17  2.2361771981579625e-17  2.2628307329515070e-17  2.2052610155324611e-17  2.2433945420004957e-17  2.2188450812856690e-17  2.1987988640179258e-17  2.2294948751428464e-17  2.2321169201616601e-17  2.2189771509097045e-17  2.2144072933232173e-17  2.2272056056695427e-17  2.2285952162772969e-17  2.2259546091771791e-17  2.2297587126420962e-17  2.2199054877581538e-17  2.2315711541690725e-17  2.2261930644946195e-17  2.2264410945898738e-17  2.2668683794652895e-17  2.2260355606286676e-17  2.2368565904709536e-17  2.1933695748134886e-17  2.2315737767367155e-17  2.2646910981332739e-17  2.2083673626677539e-17  2.2371903586146712e-17  2.2017600836965245e-17  2.2242501703019748e-17  2.1420573004043169e-17  2.2416187135812954e-17  2.2141612873926146e-17  2.2291717089505501e-17  2.2606059146929434e-17  2.1933907573868620e-17  2.2211307894226856e-17  2.2574162665520997e-17  2.2182910653453378e-17  2.2119261030015980e-17  2.2004322350049037e-17  2.2769055686758344e-17  2.2730955613910630e-17  2.2338716104230069e-17  2.2040397917345662e-17  2.2601778071040796e-17  2.2190083535424244e-17  2.1471808156339350e-17  2.2671047061163303e-17  2.2194412859522560e-17  2.2293513768673391e-17  2.2360221923045972e-17  2.2253448411811961e-17  2.1853686255954179e-17  2.2700310400967851e-17  2.2318295030588738e-17  2.2149662379791199e-17  2.2253038837722044e-17  2.2386135565173696e-17  2.2124899720489