<?xml version="1.0"?>
<VTKFile type="UnstructuredGrid"  version="0.1"  >
<UnstructuredGrid>
<Piece  NumberOfPoints="6020" NumberOfCells="26977">
<Points>
<DataArray  type="Float64"  NumberOfComponents="3"  format="ascii">-55.333333 12.25173 -7.063648  -55.333333 13.14275325 -7.05619225  -55.333333 13.44337075 -6.37956075  -54.66680675000001 13.3811 -6.55580625  -54.0002805 14.51047 -6.0479645  -54.66680675000001 14.27212325 -6.5483505  -54.66680675000001 14.57274075 -5.871719000000001  -55.333333 14.6350115 -5.6954735  -55.333333 14.334394 -6.372105  -55.333333 14.0337765 -7.0487365  -55.333333 12.5523475 -6.3870165  -54.66680675000001 13.6817175 -5.879174750000001  -55.333333 13.74398825 -5.70292925  -55.333333 12.852965 -5.710385  -54.66680675000001 12.49007675 -6.563262  -54.0002805 13.61944675 -6.055420249999999  -54.0002805 12.7284235 -6.062875999999999  -54.66680675000001 12.79069425 -5.8866305  -54.0002805 13.92006425 -5.37878875  -54.66680675000001 13.982335 -5.20254325  -54.0002805 13.029041 -5.3862445  -54.66680675000001 13.09131175 -5.209999  -55.333333 15.815823 -7.033825  -55.333333 14.92479975 -7.04128075  -55.333333 15.22541725 -6.36464925  -54.66680675000001 15.1631465 -6.54089475  -53.33375425 13.8577935 -5.55503425  -53.33375425 12.96677025 -5.562489999999999  -50 12.498926 -12.501074  -50.66778 12.3964365 -11.35356325  -50.66778 11.8750195 -11.87498025  -51.33333325 12.80969525 -11.826762  -52.66666650000001 13.1204645 -11.15245  -52.00111325 12.70720575 -10.67925125  -52.00111325 12.18578875 -11.20066825  -51.33556 11.251113 -11.2488865  -51.33556 11.77253 -10.7274695  -51.33556 12.293947 -10.2060525  -50 13.020343 -11.979657  -50 13.54176 -11.45824  -50.66778 12.9178535 -10.83214625  -51.33333325 13.33111225 -11.305345  -50 14.584594 -10.415406  -50.66778 13.4392705 -10.31072925  -51.33333325 14.37394625 -10.262511  -51.33333325 13.85252925 -10.783928  -52.00111325 13.22862275 -10.15783425  -52.66666650000001 13.6418815 -10.631033  -52.66666650000001 14.1632985 -10.109616  -50 14.063177 -10.936823  -55.333333 13.742003 -9.803826000000001  -54.66777975000001 12.80732725 -9.852044250000001  -53.99999975 13.95265075 -9.956721000000002  -53.99999975 13.43123375 -10.478138  -53.33444650000001 13.017975 -10.00493925  -53.33444650000001 12.496558 -10.52635625  -54.00222650000001 11.8726515 -9.9002625  -52.67112 10.0033 -9.996699  -53.33667325 10.93797575 -9.94848075  -52.66889325 12.08329925 -10.0531575  -52.66889325 11.56188225 -10.5745745  -52.00334 11.1486235 -10.10137575  -52.00334 10.6272065 -10.62279275  -51.076355 12.770722 -19.152923  -50.5442465 12.2388135 -20.21694  -50.2852435 11.66250375 -19.05225275  -50.54423749999999 12.77094325 -19.68481925  -50.01212 12.7711645 -20.2167155  -49.753135 11.13059525 -20.11626975  -50.012129 12.23903475 -20.74883625  -49.75312599999999 11.662725 -19.584149  -49.494132 10.5542855 -18.9515825  -50.012138 11.706905 -21.280957  -51.076364 12.23859225 -19.68504375  -51.076373 11.7064625 -20.2171645  -50.54425550000001 11.70668375 -20.74906075  -50.2852525 11.130374 -19.5843735  -48.947885 12.771607 -21.280508  -49.4800115 12.239256 -21.2807325  -49.2210085 11.66294625 -20.11604525  -49.4800025 12.77138575 -20.74861175  -50.0121165 19.1563355 -13.8315485  -49.75516625 18.0010695 -13.2437645  -50.01212049999999 18.62423675 -14.36364325  -50.2873 18.00072375 -12.71197625  -50.54425424999999 18.623891 -13.831855  -50.0121245 18.092138 -14.895738  -49.75517025 17.46897075 -13.77585925  -49.498216 16.8458035 -12.6559805  -51.076384 19.155644 -12.767972  -51.07638799999999 18.62354525 -13.30006675  -51.076392 18.0914465 -13.8321615  -50.287304 17.468625 -13.244071  -50.54425825 18.09179225 -14.36394975  -51.0764 17.027249 -14.896351  -50.287308 16.93652625 -13.77616575  -50.54426225 17.5596935 -14.8960445  -51.076396 17.55934775 -14.36425625  -49.2230325 18.00141525 -13.77555275  -49.47998674999999 18.6245825 -14.8954315  -53.204883 17.026356 -12.768761  -52.40366225 16.9342235 -11.66211425  -53.2048885 17.55839325 -12.236718  -52.67275825 17.558678 -12.76856375  -52.1406335 18.091 -12.7683665  -51.8715375 17.4665455 -11.661917  -52.67276375 18.09071525 -12.23652075  -53.204894 18.0904305 -11.704675  -55.333333 8.314617999999999 -11.439717  -54.66667575 8.44517375 -12.22174125  -54.66667575 8.991079750000001 -11.708099  -54.66667575 8.16231075 -11.544444  -54.0000185 8.0100035 -11.649171  -54.0000185 8.292866500000001 -12.32646825  -54.0000185 8.838772500000001 -11.812826  -54.0000185 9.6675415 -11.976481  -54.0000185 9.1216355 -12.49012325  -54.0000185 8.575729500000001 -13.0037655  -55.333333 8.597481 -12.11701425  -55.333333 8.880344000000001 -12.7943115  -54.66667575 8.728036750000001 -12.8990385  -54.66667575 9.27394275 -12.38539625  -55.333333 9.143387000000001 -11.603372  -55.333333 9.972156 -11.767027  -54.66667575 9.81984875 -11.871754  -55.333333 9.42625 -12.28066925  -55.333333 11.629694 -12.094337  -54.66667575 10.64861775 -12.035409  -55.333333 11.083788 -12.60797925  -55.333333 10.800925 -11.930682  -54.66667575 10.10271175 -12.54905125  -55.333333 10.255019 -12.44432425  -55.333333 10.537882 -13.1216215  -55.333333 9.446070000000001 -14.148906  -54.66667575 9.01089975 -13.57633575  -54.66667575 9.556805750000001 -13.0626935  -55.333333 9.163207 -13.47160875  -55.333333 9.991976000000001 -13.63526375  -55.333333 9.709113 -12.9579665  -52.666704 7.705389 -11.858625  -53.33336125 8.140559250000001 -12.43119525  -53.33336125 8.686465250000001 -11.917553  -53.33336125 7.85769625 -11.753898  -50.5442505 16.495564 -15.9601855  -50.28641875 15.896643 -14.81693825  -50.54425825 17.02761975 -15.428122  -50.0121165 17.0279905 -15.959893  -49.75426925 15.364958 -15.88077275  -50.01210875 16.49593475 -16.4919565  -49.754277 15.89701375 -15.34870925  -49.4964375 14.766037 -14.7375255  -50.012101 15.963879 -17.02402  -51.07639225 16.49519325 -15.4284145  -51.0763845 15.9631375 -15.960478  -50.54424275 15.96350825 -16.492249  -50.286411 15.36458725 -15.34900175  -51.076369 14.899026 -17.024605  -49.7542615 14.83290225 -16.41283625  -50.2863955 14.30047575 -16.41312875  -50.28640325 14.8325315 -15.88106525  -48.964288 14.234352 -15.80136  -48.96429575 14.76640775 -15.2692965  -49.49642975 14.23398125 -15.269589  -49.496422 13.7019255 -15.8016525  -48.432154 14.7667785 -15.8010675  -50.544235 15.4314525 -17.0243125  -49.2221275 15.36532875 -16.41254375  -51.07637675 15.43108175 -16.4925415  -48.947833 17.028732 -17.023435  -48.6899935 15.89775525 -16.41225125  -49.479967 16.4963055 -17.0237275  -49.22213525 15.8973845 -15.88048025  -49.47997475 17.02836125 -16.491664  -47.916475 12.504825 -14.5787  -48.17431449999999 13.63580175 -15.18988375  -48.70644849999999 13.10337525 -15.19017625  -48.70645625 13.635431 -14.65811275  -50 10.415406 -14.584594  -51.33333325 10.718978 -13.96202975  -50.66778 10.3123795 -13.43762025  -50 10.936286 -14.063714  -50 11.457166 -13.542834  -51.33333325 11.239858 -13.44114975  -50.66778 10.8332595 -12.91674025  -51.33556 10.209353 -12.2906465  -52.00111325 10.6159515 -12.815056  -52.66666650000001 11.02255 -13.3394655  -51.33333325 11.760738 -12.92026975  -51.33333325 12.281618 -12.39938975  -52.00111325 11.1368315 -12.294176  -52.00111325 11.6577115 -11.773296  -52.66666650000001 12.06431 -12.2977055  -52.66666650000001 11.54343 -12.8185855  -50.66778 11.3541395 -12.39586025  -51.33556 10.730233 -11.7697665  -50 11.978046 -13.021954  -53.99999975 11.326122 -12.71690125  -54.66777975000001 11.2230955 -11.5699275  -53.99999975 11.847002 -12.19602125  -53.33444650000001 10.9195235 -12.19249175  -53.33444650000001 11.4404035 -11.67161175  -54.00222650000001 10.816497 -11.045518  -52.66889325 10.512925 -11.66808225  -53.33667325 10.4098985 -10.5211085  -52.66889325 11.033805 -11.14720225  -52.00334 10.1063265 -11.14367275  -55.333333 12.769231 -14.897436  -55.333333 11.93844075 -14.7103035  -55.333333 12.48434675 -14.19666125  -53.99999975 11.8958905 -14.11845075  -53.99999975 11.06510025 -13.93131825  -53.99999975 11.61100625 -13.417676  -55.333333 12.1994625 -13.4958865  -55.333333 11.6535565 -14.00952875  -55.333333 11.1076505 -14.523171  -53.99999975 12.18077475 -14.8192255  -52.66666650000001 11.30743425 -14.04024025  -53.99999975 11.3499845 -14.632093  -52.66666650000001 11.5923185 -14.741015  -51.33333325 11.00386225 -14.6628045  -51.33333325 10.173072 -14.475672  -52.66666650000001 10.76152825 -14.5538825  -52.66666650000001 10.476644 -13.85310775  -52.66666650000001 9.930738000000002 -14.36675  -55.333333 11.36867225 -13.308754  -55.333333 10.82276625 -13.82239625  -53.99999975 10.780216 -13.2305435  -55.333333 11.91457825 -12.79511175  -55.333333 10.27686025 -14.3360385  -53.99999975 10.23431 -13.74418575  -53.99999975 10.51919425 -14.4449605  -53.99999975 9.688404000000002 -14.257828  -50 8.333907 -16.666093  -51.33333325 8.12386725 -16.55458  -50.666676 8.1767775 -15.464226  -51.33333325 8.611947750000001 -16.03679625  -52.66666650000001 8.889988500000001 -15.4074995  -52.00000925000001 7.96673775 -15.352713  -52.66666650000001 8.401908000000001 -15.92528325  -52.00000925000001 8.454818250000001 -14.83492925  -51.333352 8.019648 -14.262359  -52.66666650000001 7.9138275 -16.443067  -54.66667575 8.522819250000001 -14.0941195  -53.99999975 9.16802925 -14.77820275  -54.0000185 8.087649000000001 -13.52154925  -53.3333425 8.732859000000001 -14.2056325  -53.3333425 8.244778500000001 -14.72341625  -54.0000185 7.5995685 -14.039333  -55.333333 8.9579895 -14.66668975  -53.99999975 8.679948750000001 -15.2959865  -55.333333 8.469909000000001 -15.1844735  -54.66667575 8.034738750000001 -14.61190325  -55.333333 7.493748 -16.220041  -54.66667575 7.54665825 -15.129687  -55.333333 7.981828500000001 -15.70225725  -53.99999975 8.191868250000001 -15.81377025  -53.3333425 7.756698 -15.2412  -52.66668525 7.80960825 -14.150846  -53.99999975 7.70378775 -16.331554  -53.33336125 7.65247875 -12.948979  -52.66668525 8.297688750000001 -13.63306225  -52.000
[...]
<PointData  Scalars="c_HbO2"> 
<DataArray  type="Float64"  Name="c_HbO2"  format="ascii">2.0000000000000001e-17  2.0581799471885659e-17  2.0299997956808934e-17  1.9744133330651428e-17  2.0157794196296720e-17  2.0198410130776347e-17  2.0464908145780622e-17  2.1088049665064017e-17  2.1295702824855259e-17  2.0971034730415842e-17  2.0000000000000001e-17  2.0012650875306577e-17  2.0336372439658006e-17  2.0000000000000001e-17  2.0000000000000001e-17  1.9774238193360168e-17  2.0000000000000001e-17  2.0000000000000001e-17  2.0089606893467601e-17  1.9914967501139607e-17  2.0000000000000001e-17  2.0000000000000001e-17  2.1719675826465345e-17  2.2087446641990943e-17  2.1559384235598441e-17  2.0701807691875702e-17  2.0112367646794067e-17  2.0000000000000001e-17  2.3069908190471563e-17  1.9488908001880207e-17  1.7558750208944108e-17  1.8028488332212856e-17  2.0292606864297297e-17  2.2060315392425368e-17  2.1253334984070514e-17  2.0933257506638296e-17  2.0672441544911181e-17  2.1116587002452241e-17  2.2825105281468908e-17  2.2429348260725678e-17  1.9014966358399435e-17  1.9222694410829581e-17  2.3433245182487678e-17  1.9027836766734757e-17  2.0410953973591613e-17  1.7641967875291293e-17  2.0974610180409232e-17  2.0253314261796448e-17  1.9642707745868041e-17  2.1900282931257697e-17  2.1597668998698091e-17  2.0503310219361817e-17  2.0254117003827846e-17  2.0615220871531310e-17  1.9633083698316937e-17  1.9319322495985306e-17  2.0602653455655462e-17  2.0000000000000001e-17  2.0544394034946529e-17  1.9309943047179704e-17  1.8678388307676464e-17  1.9592828403120290e-17  2.0057086242455646e-17  2.2037016248534183e-17  2.2062013971761714e-17  2.1456244628921374e-17  2.1980068728480536e-17  2.2073906181595741e-17  2.1431602814749315e-17  2.2078287443340860e-17  2.1388839935021940e-17  2.0755639104349789e-17  2.2083656475349055e-17  2.1949597837715741e-17  2.2043610322308512e-17  2.1983949724794428e-17  2.1367293709178423e-17  2.2092044464467095e-17  2.2049612805419222e-17  2.1537674760582728e-17  2.2059231655007316e-17  2.2082303751857925e-17  2.1319284365447745e-17  2.2041529733773516e-17  2.1399456343759200e-17  2.2078095534423031e-17  2.2073646602705332e-17  2.1317060061859797e-17  2.0730777035261057e-17  2.2040224235823606e-17  2.1972478002382792e-17  2.2068550683336864e-17  2.1277979583671506e-17  2.1981919347445894e-17  2.2027521373277864e-17  2.1260104224642744e-17  2.2011608100101241e-17  2.2088205717093241e-17  2.1463888840941676e-17  2.2053145168330687e-17  2.2170804418772704e-17  2.0780166785616830e-17  2.2278702215287500e-17  2.1935702244261191e-17  2.2043682732453852e-17  2.1283004089800848e-17  2.1982460567982834e-17  2.2162601450223044e-17  2.0000000000000001e-17  1.9606784119388324e-17  2.0089777961951101e-17  2.0000000000000001e-17  2.0000000000000001e-17  1.9549392839435717e-17  1.9564012634934888e-17  2.0400847848573571e-17  2.0411441542593638e-17  2.0403320535000997e-17  2.0537800629883984e-17  2.0912713737492017e-17  2.0369796192461963e-17  2.0092697172336271e-17  2.0035824740585887e-17  2.0762229805758486e-17  2.0388578023552510e-17  2.1126299321774767e-17  2.1620495470433535e-17  2.0456498223878386e-17  2.1280061499608344e-17  2.1962384114640747e-17  2.0450561847153760e-17  2.1824520715629785e-17  2.1510969795494572e-17  2.1647365324699833e-17  2.0511163087825096e-17  2.0523496802533109e-17  2.1789600135000620e-17  2.1839703009335296e-17  2.1750147446101751e-17  2.0000000000000001e-17  2.0474428390650858e-17  2.0118330584873070e-17  2.0000000000000001e-17  2.2038990145769317e-17  2.1391224114138800e-17  2.1962105270117305e-17  2.2066908810840595e-17  2.1306411643821619e-17  2.2049948292033071e-17  2.1295936378316510e-17  2.0673054145474726e-17  2.2068405500893978e-17  2.1960852192179613e-17  2.2034443496274700e-17  2.1956289276548646e-17  2.1196767313992510e-17  2.2017643707627255e-17  2.1349511764719932e-17  2.1319145789962072e-17  2.1355855080698792e-17  2.0370792016971816e-17  2.0667045275212447e-17  1.9959859826769232e-17  2.0495135237678073e-17  2.0949770988036995e-17  2.1986138184945608e-17  2.1372769259364458e-17  2.2011667426467999e-17  2.2073355546809654e-17  2.1456207018636718e-17  2.2044075905494874e-17  2.1435776712723314e-17  2.2046064788822769e-17  2.1272402150193400e-17  2.1611414243081776e-17  2.2133484452609655e-17  2.1785775646951156e-17  2.3535108797605030e-17  1.8452214081901219e-17  1.7400017969410255e-17  2.5054800107745818e-17  2.1993969960897864e-17  1.8768318203021951e-17  1.9137516844867231e-17  2.0991079957188953e-17  2.1628961477889650e-17  1.9690294984221113e-17  1.8166182005109927e-17  1.9651741205622821e-17  2.1520962512608554e-17  2.1413350372295691e-17  1.9591671781411671e-17  1.9612393413397813e-17  1.7778199138013254e-17  2.0992713140900116e-17  2.6238299604724360e-17  2.0612188156719217e-17  2.0420805782842970e-17  2.0399971119226674e-17  1.9519006361882439e-17  2.0186273985738044e-17  2.0406952977508019e-17  1.8986792855959197e-17  2.0549860427600842e-17  1.9709964175077210e-17  1.9450927225511164e-17  2.2203030741149697e-17  2.1983025705977357e-17  2.2018035053796127e-17  2.1292695647037916e-17  2.0704403303494677e-17  1.9780010225804408e-17  2.2217911041163405e-17  2.1870351746633349e-17  2.2063057930074713e-17  2.1212357359003034e-17  1.9922868531164947e-17  2.1066552860174073e-17  1.9912576804396537e-17  1.9036112312920870e-17  1.8697685527080404e-17  2.0096131590930442e-17  2.0199577799672101e-17  1.9683533349393357e-17  2.2107971722103567e-17  2.1963025498291551e-17  2.0492696751580366e-17  2.1876018799241486e-17  2.1860050616361233e-17  2.0283327287481290e-17  2.0616879741890949e-17  2.0371264786079013e-17  2.3249861240177642e-17  1.7711314504173298e-17  1.8098255107617589e-17  1.8290954120216239e-17  1.9809064780407462e-17  2.1865284963539490e-17  2.0689893632382772e-17  2.1387077582727692e-17  2.1474815052416214e-17  2.1533898361012792e-17  2.0630021478733604e-17  2.0657949441382798e-17  2.0227683623527933e-17  1.9613499722174330e-17  1.9992048943376370e-17  2.0652149394168798e-17  2.1405186397841643e-17  2.0904896094570456e-17  2.1737831466106386e-17  2.0686897229019270e-17  2.2348347464644820e-17  2.1042349046999914e-17  2.1906571033418983e-17  2.0311683918057669e-17  1.8880626550535719e-17  1.9122920369925876e-17  1.9772458957627614e-17  2.0376851191620658e-17  1.9023810969779097e-17  1.9470197669957257e-17  2.1251035612195754e-17  2.1190467570704914e-17  1.9606056843356882e-17  1.9741103074910673e-17  1.9423331938935852e-17  2.0448619009511021e-17  2.0617427925591833e-17  2.3054491156832657e-17  1.7118458642341886e-17  1.2105899247858292e-17  2.0293873155152126e-17  2.1143775658900975e-17  2.1174436301010738e-17  2.0355562610033222e-17  2.1090698890743252e-17  2.0620416521052550e-17  2.1271224680266081e-17  2.1530288448106450e-17  2.1707327120621442e-17  2.0779417420891980e-17  2.1616287966803951e-17  2.1472072984102232e-17  2.1575065414902732e-17  2.1812772700801089e-17  2.1736861805277236e-17  2.1384242224593844e-17  2.1779605988539245e-17  2.1573496915599547e-17  2.1471074851480561e-17  2.0981563328233603e-17  2.2084744464010595e-17  2.1588858393270623e-17  2.2065117283506216e-17  2.2084207264089942e-17  2.1620770482184616e-17  2.2093673492294214e-17  2.1611403909397578e-17  2.1247416544536549e-17  2.2093266510450399e-17  2.2035699609539278e-17  2.2068437203909744e-17  2.2074396020929369e-17  2.1530337932318874e-17  2.2079929056580631e-17  2.1626162151666653e-17  2.1552657799517426e-17  2.1581571222618082e-17  2.1395799745397526e-17  2.1363185875899143e-17  2.1258670530522380e-17  2.1273068844246464e-17  2.1511203978710722e-17  2.2081226966926717e-17  2.1695448576312467e-17  2.2078971566030723e-17  2.2112278974997376e-17  2.1756429536808459e-17  2.2110155890640519e-17  2.1706444997941648e-17  2.2103668406825905e-17  2.2025353817141525e-17  2.1693727956562362e-17  2.1670015488870606e-17  2.1635292137283283e-17  1.9531787493983776e-17  1.8976268342098415e-17  1.9938422638941120e-17  2.0000000000000001e-17  2.0000000000000001e-17  2.0000000000000001e-17  2.0000000000000001e-17  2.0259442710557807e-17  2.0264412921981302e-17  2.0000000000000001e-17  2.0000000000000001e-17  2.0000000000000001e-17  2.0000000000000001e-17  2.1394015127684791e-17  2.1452165641849284e-17  2.1308136308520581e-17  2.0675718518788710e-17  2.0603180643661209e-17  2.0809799674776886e-17  2.1124817045385066e-17  2.0960041223584482e-17  2.1006474463451980e-17  2.1986739758160748e-17  2.2072198885517400e-17  2.1406323285505010e-17  2.1470594657984348e-17  2.1443529372830844e-17  2.2002756947568362e-17  2.1479630680994369e-17  2.1549283175245383e-17  2.2040616755694069e-17  2.2040884613339843e-17  2.2045022456128057e-17  2.2075343067999237e-17  2.1508332576798267e-17  2.1548061164890279e-17  2.2090127540120760e-17  2.2096411775093706e-17  2.1275109472872164e-17  2.1599152991723886e-17  2.1530753071959903e-17  2.2161857624858196e-17  2.0000000000000001e-17  2.0000000000000001e-17  1.9648615419834183e-17  2.0209695904508267e-17  1.9705874274384200e-17  1.8939712309969745e-17  1.9967167781895330e-17  2.0254290468875599e-17  2.0000000000000001e-17  2.0071257105818248e-17  2.0288684971701872e-17  2.0384811597906602e-17  2.0845185898394892e-17  2.0000000000000001e-17  1.9269075007432552e-17  2.0000000000000001e-17  2.0000000000000001e-17  2.0559006083781287e-17  2.1972019505850484e-17  2.0000000000000001e-17  2.0000000000000001e-17  2.0234742377391063e-17  2.0000000000000001e-17  2.0000000000000001e-17  2.0000000000000001e-17  2.0000000000000001e-17  2.0000000000000001e-17  2.0000000000000001e-17  1.9801208738700163e-17  2.0265505178652210e-17  2.2457669161373345e-17  2.1706134461690494e-17  2.2240304018994271e-17  2.1097946721907246e-17  2.0409673394198906e-17  2.1218098074801776e-17  2.1283461102337321e-17  2.2163088193840475e-17  2.2269892650727706e-17  2.2070531735882327e-17  2.1253089693551505e-17  2.1251737967884017e-17  2.1150749875326478e-17  1.9870235242819963e-17  2.0388968727421899e-17  2.1189799540154876e-17  2.0575755675551627e-17  1.9444280014292152e-17  2.1851653403043907e-17  2.1424220364774262e-17  2.1172942475256466e-17  2.2076053718038383e-17  2.2094619620243382e-17  2.1718745562692902e-17  2.2126551171813549e-17  2.2091641717550699e-17  2.1219907784705081e-17  2.1321928327884617e-17  2.1846597856211676e-17  2.1775844434636947e-17  1.9268110935757041e-17  1.8647865839299276e-17  1.8969112058158760e-17  2.1554469844500743e-17  2.1528967218885475e-17  1.9664826535599848e-17  1.9532773356557312e-17  2.0555659383166994e-17  1.8464485138332314e-17  2.1756409212387415e-17  2.1218511266107957e-17  2.1257697144924910e-17  2.2036046902309042e-17  2.1315702864755660e-17  2.2075941748457888e-17  2.1987218646556351e-17  2.1449958970377314e-17  2.1364355129125581e-17  2.1748686374127900e-17  2.1921663796420720e-17  2.1486780360569876e-17  2.1831228056789875e-17  2.4539318416144786e-17  2.1538415601669919e-17  2.1482519995872950e-17  2.1089541450805025e-17  2.0979480905532369e-17  2.0927102155610791e-17  2.1049843090846854e-17  2.1241685835740600e-17  2.1829308614876666e-17  2.1354217273144995e-17  2.1395524161047141e-17  2.1589551962558523e-17  2.1532740587559384e-17  2.1437578411569487e-17  2.1823943186344392e-17  2.1867784085086292e-17  2.1692635851083617e-17  2.1868134226773805e-17  2.2049194337795220e-17  2.1463167478279644e-17  2.1604165890917869e-17  2.2009917527443376e-17  2.1906120294881445e-17  2.1750056390639310e-17  2.2025884803764251e-17  2.2059971004151059e-17  2.2090108119445342e-17  2.1528392700898629e-17  2.1531275411519534e-17  2.1666959164839220e-17  2.1337027325141795e-17  2.1968040385967107e-17  2.2080857314984223e-17  2.1334094195051872e-17  2.2068917900470626e-17  2.2067616237750224e-17  2.1275811128238441e-17  2.0575033650764996e-17  2.1980022940353803e-17  2.2039843508258959e-17  2.1269874875446575e-17  2.1978447741689150e-17  2.1375575785715951e-17  2.0244803014733480e-17  2.0629472569374235e-17  2.2034171639648127e-17  2.1446166298004385e-17  2.2050023003254823e-17  2.1716948268848277e-17  2.1430902004523037e-17  2.1999593237852317e-17  2.1966355685943236e-17  2.1451274175305154e-17  2.1658442952621382e-17  2.1622752262915911e-17  2.1309603719145858e-17  2.1884179039765164e-17  2.1921497296423432e-17  2.1838008488552448e-17  2.2046496116311704e-17  2.1667136882115979e-17  2.2020389800811320e-17  2.1908848798731567e-17  2.1806643694308957e-17  2.2041345333183139e-17  2.2081480204143688e-17  2.2105794986341159e-17  2.1606797642598280e-17  2.1383981989285900e-17  2.0734532792058439e-17  2.0615452618846492e-17  2.0678166096058923e-17  2.1007018947682400e-17  2.1356333663728598e-17  2.1472978601271413e-17  2.0957073203219136e-17  2.1672384492225302e-17  2.1327227460733998e-17  2.1429113819247964e-17  2.1435148170033211e-17  2.1652818182711424e-17  2.1344088561112580e-17  2.1499405790341776e-17  2.1722553332496196e-17  2.0846519464201412e-17  2.0632723132204671e-17  2.1792921575825155e-17  2.1766039839118522e-17  2.1806641276406097e-17  2.2207344409177055e-17  2.1011022551186573e-17  2.0147608503656918e-17  2.1120112594117466e-17  2.0745412153126722e-17  2.2055620163459549e-17  2.1242625300967935e-17  2.1040278354726990e-17  2.0146815268911847e-17  2.0894678173077563e-17  1.9159506671808588e-17  1.8649077055475091e-17  2.0330375527100235e-17  1.8498697696365228e-17  2.0547658549102514e-17  2.2056807755647716e-17  2.1883923046098117e-17  2.1821698285893456e-17  2.1844762912219855e-17  2.1707171945007387e-17  2.1769181612918513e-17  2.1773128143283286e-17  2.1704691314453788e-17  2.1690456254736896e-17  2.1841545999611848e-17  2.2124078008015048e-17  2.2128806778778914e-17  2.1927626611724019e-17  2.1880295140667908e-17  2.2154008053524730e-17  2.1968569377954772e-17  2.1971610128426370e-17  2.1934857072995663e-17  2.1781028214748082e-17  2.1856889596431285e-17  2.1849394542947083e-17  2.2147216430885771e-17  2.2112469643479022e-17  2.2123286748248596e-17  2.1907403710195934e-17  2.1866659922007648e-17  2.1906037162482034e-17  2.1873276435519948e-17  2.2119467998406239e-17  2.1921874432728923e-17  2.2104954242844613e-17  2.2106227316189140e-17  2.1904160281748608e-17  2.1861295127963920e-17  2.1859266656572599e-17  2.0026327367602911e-17  2.0103696768700542e-17  2.0482738508186873e-17  1.9304713708695036e-17  2.0514141341867191e-17  2.0000000000000001e-17  2.0000000000000001e-17  2.0000000000000001e-17  1.9761553352886518e-17  2.0590050224459347e-17  2.0000000000000001e-17  2.0000000000000001e-17  2.0305926694622049e-17  2.0518684952200827e-17  2.0000000000000001e-17  2.0000000000000001e-17  2.0000000000000001e-17  1.9886930264665116e-17  2.0000000000000001e-17  2.1558890218383130e-17  2.1336291580691642e-17  2.0293493302274057e-17  2.0266863017383332e-17  1.9697137682709777e-17  2.0130146394429753e-17  1.9949735892551181e-17  2.1364409015239927e-17  1.9076933242593040e-17  2.2365590648660856e-17  2.2180402482314104e-17  2.1813740443274904e-17  2.1781947655601436e-17  2.0849873164617470e-17  2.0431122363879735e-17  2.1527828087154477e-17  2.1643298045381501e-17  2.0000000000000001e-17  2.0001685799386553e-17  2.0000000000000001e-17  2.0000000000000001e-17  2.0413303244594245e-17  2.0000000000000001e-17  1.9749733904527235e-17  1.9908800192634292e-17  2.0000000000000001e-17  2.0413542395069474e-17  2.0296646178185636e-17  2.0765481469394029e-17  2.0541319250831358e-17  2.0837559268110702e-17  2.0000000000000001e-17  2.1699596674682278e-17  1.6003038245026209e-17  1.8696877695881369e-17  1.9126413095937336e-17  2.0946636534192064e-17  2.2337466871476540e-17  2.0719008095023326e-17  1.9581650341474942e-17  2.1153682293495646e-17  2.1318982884208823e-17  2.6742057654154693e-17  2.2356509618027166e-17  1.9300648974598469e-17  1.9341284952131686e-17  1.9669313374913999e-17  1.9872862310767669e-17  1.8345441572235083e-17  1.7606681017474815e-17  2.0456054852262625e-17  1.9698334902932606e-17  2.0018013656597907e-17  1.9019946994335527e-17  1.9683074582174036e-17  1.8464062290930161e-17  1.9764377075493606e-17  1.9499009016418132e-17  2.1069302798571063e-17  2.0221737319754451e-17  2.1269201678681709e-17  1.7883042747283302e-17  2.0915056881512419e-17  1.9142270998827390e-17  2.0223651050439124e-17  2.0142164694877748e-17  2.1131958966264639e-17  2.1692137443162216e-17  2.1604629838213852e-17  2.1796651403755705e-17  2.0486321748253799e-17  2.0555550344337737e-17  2.1970537435669430e-17  2.1462336337836848e-17  2.2199598093899239e-17  2.0579774524273308e-17  2.1354459858720410e-17  2.1759156126792785e-17  2.1517829298277643e-17  2.1796747589352282e-17  2.0432142799998397e-17  2.1023268620520587e-17  2.1216125835687551e-17  2.1588428287202060e-17  2.1963610252874192e-17  2.1844850387628055e-17  2.1354144911292336e-17  2.0736144469158055e-17  2.2326565512449483e-17  2.1179184963316814e-17  2.2142313981820644e-17  2.2013918989162960e-17  2.2124525864195980e-17  2.1288968114952859e-17  2.1899040638825717e-17  2.0476421283570080e-17  2.1003679439773907e-17  2.1193230944005159e-17  2.1414587251344457e-17  2.0785025544438144e-17  1.9539306240700835e-17  2.1656447946465452e-17  1.8714346029530843e-17  2.1593335956989456e-17  2.1006647639960193e-17  2.1445441661562931e-17  1.9658010453458655e-17  1.9942024015525203e-17  2.0345710200019130e-17  2.0268015390334308e-17  2.0301024370713513e-17  2.1971669384268851e-17  2.1175631060965548e-17  2.1178060652820959e-17  2.1936899855715953e-17  2.1522045985007534e-17  2.1390063859302957e-17  1.9974402830936826e-17  1.9941287921244454e-17  2.1855422557822063e-17  1.8834196602206804e-17  2.5362526298379075e-17  2.3191834492214183e-17  1.8337013139686927e-17  2.2115631820484550e-17  1.9601303660842666e-17  1.8737789884531789e-17  2.6287764276082383e-17  2.2407787824119851e-17  1.9547672586341367e-17  2.0618671700929880e-17  1.9732505721886258e-17  2.0463275038058162e-17  2.0071998857249457e-17  2.0440201929916139e-17  2.0808871235305601e-17  2.1129877867678208e-17  2.1280418291930017e-17  2.0487698794050344e-17  2.1585982103667449e-17  2.1684223405014510e-17  2.1730110388905147e-17  2.0492606411915057e-17  2.1684027864658606e-17  2.1849168386838643e-17  2.1259019401976781e-17  2.1498651773002655e-17  1.9278942578424664e-17  1.9962102721067538e-17  1.9976181389558425e-17  1.9219736120288620e-17  1.9865874384659703e-17  1.6324486509277809e-17  2.3051672954459770e-17  2.5396468404468642e-17  1.8365310922138019e-17  1.8431042496885684e-17  2.0560318572149127e-17  2.0574459596411663e-17  2.0540030839281740e-17  8.8181795673238516e-18  1.8151293003437938e-17  2.1614120406870215e-17  2.1568680017889774e-17  2.0140230895014451e-17  1.7261549075619469e-17  2.0079460712251492e-17  2.1252295521676216e-17  2.1802194779540510e-17  2.1976416846460152e-17  2.1945663390640007e-17  2.0341662288280282e-17  2.1962274497017394e-17  2.2151646372688840e-17  2.0780070718045905e-17  1.9989122324622675e-17  2.0392217441482410e-17  2.2039847356636264e-17  2.0313932686948798e-17  2.2004658528139098e-17  2.1820744987183085e-17  2.0213480994001289e-17  2.0507521044331493e-17  1.8912956493523487e-17  1.9984991230112741e-17  2.1661318304758866e-17  2.1404775955868022e-17  2.1524428594238484e-17  2.1539923601396046e-17  2.1732606309432090e-17  2.2073240362402699e-17  2.2079024501246048e-17  2.2088521543832432e-17  2.1716508611595080e-17  2.1783234387870879e-17  2.2107973237922707e-17  2.2101524866951780e-17  2.2108358281766396e-17  2.1776654710884245e-17  2.2118651535163497e-17  2.1785173497624614e-17  2.2122566351058887e-17  2.2113607046358687e-17  2.2108133285868063e-17  2.1682315066420924e-17  2.1060022411317924e-17  2.1093242218421723e-17  2.1140245677891899e-17  2.1505809064549004e-17  2.0964280085771413e-17  2.0999569216039366e-17  2.1290173750665336e-17  2.1888768079627959e-17  2.1452787152280260e-17  2.1640215708912990e-17  2.1490351921084912e-17  2.1955071822260279e-17  2.1902370175621814e-17  2.2093064740833812e-17  2.1909217254381092e-17  2.1360215323796333e-17  2.1582504614487