<?xml version="1.0"?>
<VTKFile type="UnstructuredGrid"  version="0.1"  >
<UnstructuredGrid>
<Piece  NumberOfPoints="6218" NumberOfCells="27852">
<Points>
<DataArray  type="Float64"  NumberOfComponents="3"  format="ascii">46.822931 4.252421 31.924648  46.055051 3.70832 31.23662875  46.055881 3.18931575 31.75480325  46.57411 3.18931575 31.23657425  46.325289 2.1262105 30.5485005  45.80623 2.64521475 30.548555  45.80706 2.1262105 31.0667295  45.288831 2.1262105 31.5849585  45.288001 2.64521475 31.066784  45.287171 3.164219 30.5486095  45.827647 0 29.172353  45.308588 0.5190042499999999 29.1724075  45.309418 0 29.690582  45.558239 1.06310525 30.37865575  45.03918 1.5821095 30.37871025  45.04001 1.06310525 30.89688475  44.791189 0 30.208811  44.790359 0.5190042499999999 29.6906365  44.789529 1.0380085 29.172462  46.076468 1.06310525 29.86042675  45.557409 1.5821095 29.86048125  43.754731 0 31.245269  43.753901 0.5190042499999999 30.7270945  44.27213 0.5190042499999999 30.2088655  44.521781 1.06310525 31.41511375  44.520951 1.5821095 30.89693925  44.2713 1.0380085 29.690691  43.753071 1.0380085 30.20892  44.27296 0 30.72704  43.751411 2.076017 29.172571  43.752241 1.55701275 29.6907455  44.27047 1.55701275 29.1725165  44.520121 2.10111375 30.37876475  45.03834999999999 2.10111375 29.86053575  44.519291 2.620118 29.86059025  38.305254 -6.381407 38.313339  35.7851385 -6.3567575 36.858104  35.8103175 -5.292019 37.8976635  36.8498055 -5.293434 36.856761  37.240587 -7.4447305 38.314682  36.17592 -8.508054 38.316025  34.7456505 -6.3553425 37.8990065  35.394357 -4.205461 35.400183  34.354869 -4.204046 36.4410855  33.315381 -4.202631 37.481988  43.466109 -1.06378425 32.47010675  43.22949975 -0.5246912500000001 31.24580875  43.98889575 -1.06378425 31.94732  44.2230605 -2.1275685 32.649371  42.94087775 -1.5884755 32.4706465  43.70027375 -2.1275685 33.17215775  43.4636645 -1.5884755 31.94785975  42.7042685 -1.0493825 31.2463485  43.177487 -2.1275685 33.6949445  43.23194425 0 31.76805575  42.7091575 0 32.2908425  42.94332225 -1.06378425 32.99289349999999  42.706713 -0.5246912500000001 31.7685955  41.663584 0 33.336416  42.4205355 -1.06378425 33.51568025  41.658695 -1.0493825 32.291922  42.18392625 -0.5246912500000001 32.29138225  41.653806 -2.098765 31.247428  42.4156465 -2.11316675 32.47118625  42.17903725 -1.57407375 31.24688825  42.18637075 0 32.81362925  44.69139 -4.255137 34.053473  43.9344385 -3.19135275 33.87420874999999  44.45722525 -3.19135275 33.351422  43.172598 -3.176951 32.6504505  42.93843325 -2.11316675 31.9483995  38.304736 -8.508397 36.186868  36.84270549999999 -7.408851500000001 34.74844349999999  36.8495465 -6.356929 35.7935255  37.88981 -6.356278 34.7539125  37.474884 -4.204159 33.320957  36.4277795 -5.2567325 33.315488  36.4346205 -4.20481 34.36057  35.387516 -5.2573835 34.355101  35.380675 -6.309306 33.310019  37.8817415 -7.408908 33.709351  37.4668155 -5.256788999999999 32.2763955  37.458747 -6.309419 31.231834  36.419711 -6.309362500000001 32.2709265  42.562895 -4.254822 36.182283  41.067089 -4.239789 33.693122  40.002744 -4.2395675 34.7576885  41.067261 -3.176104 34.756635  41.498206 -6.3819705 35.1198235  42.562723 -5.318507 35.11877  41.498378 -5.3182855 36.1833365  40.433861 -6.381749 36.18439  42.562551 -6.382192 34.055257  39.571627 -2.097386 33.330987  45.55747775 -1.06386225 30.37866  45.305463 -0.52343425 29.17110275  46.07570674999999 -1.06386225 29.860431  46.3237665 -2.1277245 30.548509  45.03529374999999 -1.5872965 30.37740975  45.8055375 -2.1277245 31.066738  45.55352275 -1.5872965 29.85918075  44.783279 -1.0468685 29.1698525  45.28730849999999 -2.1277245 31.584967  45.03924875 -1.06386225 30.896889  44.787234 -0.52343425 29.68933175  43.750776 -0.52343425 30.72578975  44.52101974999999 -1.06386225 31.415118  44.269005 -0.52343425 30.20756075  44.26505 -1.0468685 29.6880815  44.51706475 -1.5872965 30.89563875  43.746821 -1.0468685 30.2063105  46.819886 -4.255449 31.924665  46.04964225 -3.715021 31.23533675  46.05359725 -3.19158675 31.754816  46.57182625 -3.19158675 31.236587  45.80158249999999 -2.65115875 30.54725875  45.2833535 -2.65115875 31.06548775  45.2793985 -3.174593 30.5460085  43.738911 -2.093737 29.167352  44.50915475 -2.634165 29.85668025  44.51310975 -2.11073075 30.3761595  45.03133875 -2.11073075 29.8579305  43.742866 -1.57030275 29.68683125  44.261095 -1.57030275 29.16860225  36.175316 -10.634777 36.189907  33.695496 -9.521658500000001 35.782846  34.7391885 -8.472307000000001 35.7885045  33.6747675 -8.472263 36.8529695  35.110895 -10.634733 37.254372  33.303061 -6.309837 35.387102  32.2593685 -7.3591885 35.3814435  31.215676 -8.40854 35.375785  38.95437250000001 -5.292954 34.7526735  38.9616535 -4.239224 35.7991225  38.5232555 -3.1507725 33.325972  38.5305365 -2.0970425 34.372421  37.489446 -2.096699 35.413855  37.482165 -3.150429 34.367406  44.5210795 -0.53193125 31.94698925  44.75524425 -1.5957155 32.64904025  44.7551845 -2.1276465 32.117169  45.28736825 -1.5957935 32.11683825  45.287428 -1.0638625 32.6487095  46.820125 -2.127725 34.05215  46.82006525 -2.659656 33.52027875  46.2878815 -3.191509 33.5206095  46.05371674999999 -2.12772475 32.81855849999999  46.05365699999999 -2.65965575 32.28668725  45.52147325 -3.19150875 32.287018  45.755638 -4.255293 32.989069  46.28782174999999 -3.72344 32.98873825  46.82000549999999 -3.191587 32.9884075  46.28794125 -2.659578 34.05248075  45.521533 -2.65957775 32.81888925  45.75569775 -3.723362 33.52094025  45.7557575 -3.191431 34.0528115  45.52159275 -2.12764675 33.3507605  44.989409 -2.65949975 33.35109125  46.0537765 -1.59579375 33.35042975  45.22357375 -3.723284 34.05314224999999  45.22351399999999 -4.255215 33.521271  44.98934925 -3.19143075 32.81922  46.81994575 -3.723517999999999 32.45653625  46.287762 -4.255371 32.456867  51.076771 -2.127986 29.795243  50.544659 -2.6599425 29.7953985  50.54464625 -3.19195425 29.2633995  50.28653525 -2.12800125 28.5854635  49.4962995 -2.1280165 27.375684  49.75442325 -2.65995775 28.585619  49.75441050000001 -3.1919695 28.05362  50.01252150000001 -4.2559225 28.731556  50.01253425 -3.72391075 29.263555  50.012547 -3.191899 29.795554  49.754436 -2.127946 29.117618  48.96420025 -2.12796125 27.9078385  48.432101 -2.127906 28.439993  49.222324 -2.6599025 29.1177735  48.948323 -4.255812 29.795865  49.480435 -3.7238555 29.7957095  49.48042225 -4.25586725 29.2637105  49.22231125 -3.19191425 28.5857745  48.690212 -3.191859 29.117929  47.912082 -2.086674 25.001243  48.170707 -3.68397575 25.14531675  47.91163375 -2.6097275 24.478638  48.7032555 -3.161034 25.13570975  47.9111855 -3.132781 23.956033  48.17115525 -3.16092225 25.66792175  48.4302285 -4.2351705 26.3346005  40.433485 -8.508938000000001 34.057576  38.946116 -7.4091785 32.644705  38.9541845 -6.356548500000001 33.6892665  39.994972 -6.355271 32.6497565  39.556459 -4.201604 31.241937  38.507603 -5.2555115 31.2368855  38.5156715 -4.2028815 32.281447  40.440765 6.375078 36.184157  38.966399 6.338680500000001 33.69492049999999  38.96611249999999 5.275008 34.7588795  40.00840549999999 5.2739025 33.717692  40.4410515 7.4387505 35.120198  40.441338 8.502423 34.056239  40.008692 6.337575 32.653733  39.576046 4.172727 31.251227  38.533753 4.1738325 32.2924145  37.49146 4.174938 33.333602  34.731672 -9.525337 34.742991  33.2955445 -7.362867 34.3415885  32.251852 -8.4122185 34.33593  33.288028 -8.415896999999999 33.296075  45.2793695 -4.238493500000001 29.482137  45.79712275 -4.76295 28.4399275  45.8002705 -4.238406 28.96132375  46.04959875 -5.31087175 29.6395295  46.32117150000001 -4.2383185 28.4405105  45.822515 -2.093387 27.084099  45.29846625 -2.6180185 27.083516  45.301614 -2.0934745 27.60491225  45.55094225000001 -3.16594025 28.283118  45.0268935 -3.69057175 28.282535  45.03004125 -3.16602775 28.80393125  44.78071300000001 -2.093562 28.1257255  44.77756525 -2.618106 27.60432925  44.7744175 -3.14265 27.082933  46.07184325 -3.16585275 27.76230475  45.5477945 -3.69048425 27.76172175  44.25666425 -2.6181935 28.1251425  43.73576325000001 -2.618281 28.64595575  44.50914025 -3.16611525 29.3247445  44.5059925 -3.69065925 28.80334825  43.7326155 -3.142825 28.1245595  44.259812 -2.0936495 28.64653875  44.50284475 -4.21520325 28.281952  45.02374575 -4.21511575 27.76113875  42.564103 0 40.435897  41.499321 -2.127322 39.373357  41.5005655 -0.001403499999999891 39.373456  42.5637855 -1.063691 39.3725235  41.4996385 -1.063631 40.4367305  40.4364185 -0.001343499999999942 40.437663  41.500883 1.0622875 40.4368295  40.437663 2.124575 40.437762  40.435174 -2.127262 40.437564  42.563468 -2.127382 38.30915  42.5646955 -0.001322499999999893 38.30924450000001  42.565013 1.0623685 39.372618  41.501793 2.124656 39.3735505  42.565923 2.124737 38.309339  40.008776 -1.063631 37.927593  40.0100205 1.0622875 37.927692  39.582378 0 35.417622  41.072923 -1.063691 36.86338600000001  41.0741505 1.0623685 36.8634805  39.99516 -5.291676499999999 33.7131635  40.433673 -7.4453435 35.120983  41.059505 -5.291898 32.648597  41.498018 -7.445565 34.0564165  34.7394905 -7.4089455 36.8515635  33.309221 -5.256234 36.434545  34.348709 -5.257649 35.3936425  42.56738 4.250267 36.182353  42.34248475 3.70819025 34.949325  42.341431 3.18770025 35.47086874999999  41.073694 3.164947 34.761359  39.580008 2.079627 33.340365  40.84879875 2.62287025 33.52833099999999  40.847745 2.10238025 34.04987475  42.115482 2.1251335 34.7593845  42.11653575 2.6456235 34.23784075  42.1175895 3.1661135 33.716297  40.6239035 2.0807935 32.295303  41.89058675 1.58305675 33.5263565  40.621796 1.0398135 33.3383905  41.6656915 1.04098 32.2933285  41.667799 2.08196 31.250241  41.89269425000001 2.62403675 32.483269  41.889533 1.06256675 34.04790025  37.49541 0 37.50459  38.964942 -2.1272505 37.9078075  37.9007475 -2.1271555 38.97209700000001  38.96529200000001 -1.063631 38.971077  39.3702795 -4.254406 39.3753145  40.43482400000001 -3.1908815 39.3742945  39.37062950000001 -3.1907865 40.43858400000001  38.306085 -4.254311 40.439604  40.43
[...]
<PointData  Scalars="c_HbO2"> 
<DataArray  type="Float64"  Name="c_HbO2"  format="ascii">2.2218167939606708e-17  2.2217737056346994e-17  2.2220229897070735e-17  2.2219665677249252e-17  2.2219640016698885e-17  2.2224361894015360e-17  2.2210081756575395e-17  2.2215777700958611e-17  2.2214014571874003e-17  2.2219757263971721e-17  2.2210650933425858e-17  2.2263018038806561e-17  2.2134109650755230e-17  2.2252255935128516e-17  2.2253541917833290e-17  2.2232061184543812e-17  2.2175102193722311e-17  2.2220852546797254e-17  2.2196233971230783e-17  2.2229438302542668e-17  2.2218379615992482e-17  2.2208613425144905e-17  2.2256131931315930e-17  2.2235857864374272e-17  2.2236254105324977e-17  2.2189781565023352e-17  2.2195981326294955e-17  2.2196116889154536e-17  2.2163154739966157e-17  2.2211917332527598e-17  2.2223604788639076e-17  2.2242001413177905e-17  2.2216278262792016e-17  2.2214062553325869e-17  2.2224206472912553e-17  2.2219450721010385e-17  2.2219929082375394e-17  2.2222282359754677e-17  2.2220148281916410e-17  2.2217005607145412e-17  2.2218460547136480e-17  2.2219346407710389e-17  2.2214502087989102e-17  2.2218211235281589e-17  2.2214638732480359e-17  2.2260370981354643e-17  2.2258360308073035e-17  2.2229487150582046e-17  2.2221567487268785e-17  2.2260839138308399e-17  2.2208739328130387e-17  2.2220483697519866e-17  2.2197521287461641e-17  2.2208238221482993e-17  2.2133388059966756e-17  2.2174673833306958e-17  2.2226301168127624e-17  2.2229558768764991e-17  2.2183623781461688e-17  2.2255090026694298e-17  2.2214232460802744e-17  2.2209067888721626e-17  2.2214500458077564e-17  2.2216866703376642e-17  2.2236935883282039e-17  2.2145467527377716e-17  2.2218730911413326e-17  2.2221527298611237e-17  2.2216546800908717e-17  2.2222282486059696e-17  2.2215103979482984e-17  2.2218464343618278e-17  2.2218992593348875e-17  2.2219247188853997e-17  2.2219719008247492e-17  2.2214431653781704e-17  2.2222535673136326e-17  2.2215013984803572e-17  2.2219049033999934e-17  2.2217357903847737e-17  2.2219413793000276e-17  2.2218692912071763e-17  2.2217774169926413e-17  2.2215461871139990e-17  2.2221048582487932e-17  2.2221304804080579e-17  2.2221985636374533e-17  2.2215534863791846e-17  2.2219210478716103e-17  2.2213082732879074e-17  2.2213650999517114e-17  2.2219459085370707e-17  2.2219994652050188e-17  2.2202328871713277e-17  2.2254540084142012e-17  2.2237090689868564e-17  2.2228472665882849e-17  2.2222301221151994e-17  2.2250711673626172e-17  2.2209918883877532e-17  2.2219601288543989e-17  2.2203174071708553e-17  2.2217646029207621e-17  2.2222651313359947e-17  2.2232654379280818e-17  2.2262387023233989e-17  2.2236272391911885e-17  2.2231582306147245e-17  2.2195870272001785e-17  2.2191437232003335e-17  2.2196560358019917e-17  2.2218594621750534e-17  2.2217816827544050e-17  2.2220885649912019e-17  2.2219032590397157e-17  2.2220014669964332e-17  2.2214153786096354e-17  2.2219873437582302e-17  2.2215189538453271e-17  2.2223036243571390e-17  2.2216226302123583e-17  2.2218206995027510e-17  2.2229550923775679e-17  2.2228046408896311e-17  2.2218218440735147e-17  2.2218856931297453e-17  2.2218728321293447e-17  2.2218823391534591e-17  2.2217632236596313e-17  2.2218231845057747e-17  2.2220792997828506e-17  2.2218575320473474e-17  2.2220890228100364e-17  2.2222112245883280e-17  2.2229438213906321e-17  2.2210763836620618e-17  2.2198068754390435e-17  2.2224812074874205e-17  2.2209946384998514e-17  2.2207557352834578e-17  2.2210153976098627e-17  2.2226191757705681e-17  2.2222964971350618e-17  2.2218511491343397e-17  2.2219872271553520e-17  2.2217341857088529e-17  2.2222736667940046e-17  2.2218388768983618e-17  2.2215464683187575e-17  2.2219500414175343e-17  2.2216201749055016e-17  2.2220105002876572e-17  2.2214760103551057e-17  2.2212639957088778e-17  2.2219613973364131e-17  2.2220224141967737e-17  2.2219632193760029e-17  2.2217446424941552e-17  2.2218430212736483e-17  2.2216461113606948e-17  2.2216881436741506e-17  2.2224142401985527e-17  2.2220627079751604e-17  2.2216926365228030e-17  2.2212054097027617e-17  2.2235337455731043e-17  2.2209696838557452e-17  2.2197246945489472e-17  2.2187236897179017e-17  2.2232590143498509e-17  2.2210941549046823e-17  2.2213798000753247e-17  2.2248765100571210e-17  2.2210536982177348e-17  2.2212531273038355e-17  2.2221727111012565e-17  2.2218175286698020e-17  2.2225994039790392e-17  2.2213122002972489e-17  2.2229062998298966e-17  2.2215456279909447e-17  2.2213284754040782e-17  2.2228095059779673e-17  2.2107644695768836e-17  2.2294114506545391e-17  2.1884798754989757e-17  2.2338947738839541e-17  2.2000314327393417e-17  2.2179483804786413e-17  2.2201115511289397e-17  2.2218311775900026e-17  2.2219255678745607e-17  2.2219103637733188e-17  2.2218961520591329e-17  2.2215549783454918e-17  2.2222365195746993e-17  2.2214098814720003e-17  2.2218728629902147e-17  2.2218768292016750e-17  2.2221482863793741e-17  2.2220943282819608e-17  2.2218366617252298e-17  2.2218633913298235e-17  2.2218571072276764e-17  2.2216553352385370e-17  2.2214364459986273e-17  2.2215544519920230e-17  2.2218627074024492e-17  2.2215906442608175e-17  2.2219641285843039e-17  2.2218600000639156e-17  2.2217588612374547e-17  2.2215868666745298e-17  2.2228158136058574e-17  2.2218827014129727e-17  2.2215471526356331e-17  2.2221803258001489e-17  2.2211849964487905e-17  2.2204287557827317e-17  2.2213297952065951e-17  2.2223111487374836e-17  2.2222322719285479e-17  2.2219584181876159e-17  2.2224091860680520e-17  2.2222100497288474e-17  2.2232752181576582e-17  2.2210604409744735e-17  2.2216422987290663e-17  2.2218830256992617e-17  2.2213483236244893e-17  2.2217810511322648e-17  2.2220989003927369e-17  2.2215009633794173e-17  2.2215138729656369e-17  2.2226058989565221e-17  2.2214354970516515e-17  2.2216164756673189e-17  2.2220691521819690e-17  2.2223767174856544e-17  2.2225504543118479e-17  2.2214292833805132e-17  2.2226226509765562e-17  2.2215647030515039e-17  2.2220441107659249e-17  2.2223904393300821e-17  2.2213758496825387e-17  2.2231154651812180e-17  2.2218932209546864e-17  2.2212330150803868e-17  2.2210638371148512e-17  2.2209127156358241e-17  2.2194529632486804e-17  2.2208970192465077e-17  2.2209222503072317e-17  2.2220983402618597e-17  2.2219086109934173e-17  2.2220067686529767e-17  2.2215266452518374e-17  2.2218867225878971e-17  2.2218642583036573e-17  2.2221651827073605e-17  2.2216912731731171e-17  2.2226504761015865e-17  2.2225004849238896e-17  2.2227613776184649e-17  2.2208957244625940e-17  2.2220346326743140e-17  2.2201475495109234e-17  2.2209665042840450e-17  2.2220534074777113e-17  2.2219205122406858e-17  2.2223948440940267e-17  2.2231152290070769e-17  2.2240260314698110e-17  2.2236209765873664e-17  2.2213307204171442e-17  2.2212980452989189e-17  2.2260524915788958e-17  2.2180366007895910e-17  2.2254396192787180e-17  2.2256693660538684e-17  2.2214068447206023e-17  2.2207798344840432e-17  2.2216172839503922e-17  2.2197910975710474e-17  2.2218126660329545e-17  2.2222976149315711e-17  2.2219357945419527e-17  2.2219069697033558e-17  2.2218620120676896e-17  2.2216458518753786e-17  2.2218093216679139e-17  2.2218467350176273e-17  2.2219023427433371e-17  2.2220847930718737e-17  2.2211023317161231e-17  2.2218378326698446e-17  2.2223815863186083e-17  2.2217808002240856e-17  2.2215717953125162e-17  2.2222322408109505e-17  2.2214039958823052e-17  2.2212538785836694e-17  2.2218491789637202e-17  2.2216174316175988e-17  2.2223050373701360e-17  2.2214710355523735e-17  2.2220752284738943e-17  2.2216930413018664e-17  2.2224013142130456e-17  2.2219758052607101e-17  2.2218655951283229e-17  2.2221035463495372e-17  2.2215282877238994e-17  2.2218831472578723e-17  2.2216250555174545e-17  2.2216572927262059e-17  2.2221718824950447e-17  2.2219687030124771e-17  2.2216446936521982e-17  2.2221905879795582e-17  2.2220232630671689e-17  2.2220782307667205e-17  2.2215285750565599e-17  2.2216706732840238e-17  2.2217531816831580e-17  2.2222165354623781e-17  2.2224463589202779e-17  2.2219409686150113e-17  2.2214025432083924e-17  2.2232750763685307e-17  2.2221122300317862e-17  2.2222378938812256e-17  2.2214230953014913e-17  2.2209918612358083e-17  2.2216091821150886e-17  2.2220070340012267e-17  2.2213243043592725e-17  2.2216797066966125e-17  2.2217938720307555e-17  2.2227094225959294e-17  2.2220665237906395e-17  2.2214144731087481e-17  2.2223572686407587e-17  2.2225581161168466e-17  2.2213385420954436e-17  2.2222544011828094e-17  2.2217192102303463e-17  2.2213326431037517e-17  2.2217158380752037e-17  2.2217428666460414e-17  2.2216794049605947e-17  2.2213828453905936e-17  2.2212348975057456e-17  2.2215436514236919e-17  2.2218892507330277e-17  2.2223055016230889e-17  2.2211303758109993e-17  2.2218104551823172e-17  2.2218537876524652e-17  2.2195431037553141e-17  2.2222550274223739e-17  2.2218260338888195e-17  2.2222831257997637e-17  2.2220157379503712e-17  2.2225509326718743e-17  2.2217504550650015e-17  2.2221060358528090e-17  2.2221807616587043e-17  2.2219675472519326e-17  2.2222867171471901e-17  2.2220059167836060e-17  2.2208472179265989e-17  2.2215926100261283e-17  2.2209324406591746e-17  2.2222557150351800e-17  2.2212646257209254e-17  2.2218494578631584e-17  2.2218069318093842e-17  2.2214192815771401e-17  2.2221829852173242e-17  2.2219266320019081e-17  2.2219953643591652e-17  2.2218801344410273e-17  2.2223935093849701e-17  2.2220193492504543e-17  2.2218615595842114e-17  2.2217515129627853e-17  2.2217923627744736e-17  2.2219824069258404e-17  2.2218997679840247e-17  2.2218068477307175e-17  2.2217975290317569e-17  2.2222301094990363e-17  2.2218435323812856e-17  2.2220268432820257e-17  2.2216979581249229e-17  2.2225110480907615e-17  2.2221503615367548e-17  2.2218997640313255e-17  2.2218235231651372e-17  2.2220497183602088e-17  2.2224377266870813e-17  2.2227815632899436e-17  2.2216707614978993e-17  2.2202457280837110e-17  2.2210138434622129e-17  2.2211905372934382e-17  2.2221923244350815e-17  2.2219457249005728e-17  2.2218957908446933e-17  2.2210695545085622e-17  2.2199959033707372e-17  2.2213474693008155e-17  2.2229419452088673e-17  2.2221951581366764e-17  2.2220159851986952e-17  2.2216403243457474e-17  2.2218728121776978e-17  2.2218668706369983e-17  2.2219637554273308e-17  2.2217124556360685e-17  2.2221194612020113e-17  2.2277400870112939e-17  2.2195673995464601e-17  2.2218194961125873e-17  2.2217192851839816e-17  2.2220143084171079e-17  2.2221927227217663e-17  2.2223159669374921e-17  2.2221009281611839e-17  2.2215404566868822e-17  2.2219204282731607e-17  2.2225155802664140e-17  2.2241844610852003e-17  2.2216505090446743e-17  2.2233117084703901e-17  2.2223049856691180e-17  2.2209116634475000e-17  2.2236238625184894e-17  2.2205571432706312e-17  2.2224877414396331e-17  2.2225991036465762e-17  2.2220128294508289e-17  2.2224090933281705e-17  2.2221214814946898e-17  2.2180074605064682e-17  2.2226230663547806e-17  2.2221790013310929e-17  2.2214688939033560e-17  2.2223981560123253e-17  2.2204669700427864e-17  2.2220021029853416e-17  2.2217296266524227e-17  2.2174622116208913e-17  2.2159587990503800e-17  2.2214601127450368e-17  2.2220383066985458e-17  2.2218947801125854e-17  2.2221676790270716e-17  2.2224009086744456e-17  2.2216818141510233e-17  2.2220189724210456e-17  2.2213357785444697e-17  2.2216877885095463e-17  2.2210061853726704e-17  2.2217026421120012e-17  2.2210263667157341e-17  2.2211690879177512e-17  2.2214036039799690e-17  2.2207007370432429e-17  2.2208983054326580e-17  2.2213835727536101e-17  2.2217818552898942e-17  2.2222921009391934e-17  2.2207182694180109e-17  2.2215780328535917e-17  2.2212516429590913e-17  2.2220483193054922e-17  2.2217052364209303e-17  2.2217698309049864e-17  2.2195893194002291e-17  2.2221954450378276e-17  2.2223549610309833e-17  2.2230928543622970e-17  2.2205382733899182e-17  2.2213573562592190e-17  2.2234838879259550e-17  2.2237481397811191e-17  2.2200534125719191e-17  2.2240258808419694e-17  2.2206306391794910e-17  2.2219500148849561e-17  2.2195891110809058e-17  2.2240403484124533e-17  2.2261636488550904e-17  2.2211477353110433e-17  2.2221849253374819e-17  2.2213006279532776e-17  2.2159864005137972e-17  2.2283471035458743e-17  2.2249363289390781e-17  2.2183048514269460e-17  2.2227177108898648e-17  2.2255198073131809e-17  2.2197237696438014e-17  2.2197704676744987e-17  2.2218652132856770e-17  2.2218735481009284e-17  2.2220648754734155e-17  2.2219487734428039e-17  2.2218474109048846e-17  2.2218897536186608e-17  2.2218128940538010e-17  2.2228461624347212e-17  2.2219784341777954e-17  2.2224632678330976e-17  2.2216709064515039e-17  2.2214600662452455e-17  2.2218812393369987e-17  2.2218421349540415e-17  2.2220538053040169e-17  2.2216633015048114e-17  2.2218495570026567e-17  2.2221039470876828e-17  2.2220594351476286e-17  2.2216698773849465e-17  2.2217416654083288e-17  2.2222782352702568e-17  2.2224412462390620e-17  2.2219517736011838e-17  2.2222834375573226e-17  2.2215787723568386e-17  2.2218741113224799e-17  2.2223009387950863e-17  2.2214952198985088e-17  2.2212158132014315e-17  2.2220510019203328e-17  2.2221853925919470e-17  2.2215719111555196e-17  2.2219125698366619e-17  2.2213623348456859e-17  2.2220782684314230e-17  2.2225474255125351e-17  2.2216052385252862e-17  2.2217042336955387e-17  2.2220050541311796e-17  2.2224074616610941e-17  2.2215586984539398e-17  2.2216085216861190e-17  2.2223239341730962e-17  2.2219886413171733e-17  2.2215044848223130e-17  2.2220387151402870e-17  2.2217705015055331e-17  2.2222578255747457e-17  2.2228596894306705e-17  2.2225172300564879e-17  2.2216845891865239e-17  2.2221747833803497e-17  2.2223843921063993e-17  2.2219797832167991e-17  2.2216748927246673e-17  2.2217854077919715e-17  2.2217338987071803e-17  2.2218122637226073e-17  2.2214810491049493e-17  2.2218245357294239e-17  2.2222194710063206e-17  2.2227085172267011e-17  2.2222424917790850e-17  2.2224878645065957e-17  2.2218630614066416e-17  2.2221737847049595e-17  2.2217994903341620e-17  2.2214115813494261e-17  2.2212756330510227e-17  2.2214715527335923e-17  2.2218998222103140e-17  2.2220119031142817e-17  2.2215603249855317e-17  2.2204265461288188e-17  2.2215642486782958e-17  2.2220330186967337e-17  2.2218351481561464e-17  2.2218707663469108e-17  2.2218935779669182e-17  2.2218707681306945e-17  2.2217746190478158e-17  2.2219045221592963e-17  2.2220772055589012e-17  2.2221015394072260e-17  2.2219614330000772e-17  2.2217502063746648e-17  2.2218833745391876e-17  2.2217984265366114e-17  2.2222764176353634e-17  2.2219865832128293e-17  2.2225168129536351e-17  2.2216000414201596e-17  2.2211351310225473e-17  2.2221450472537766e-17  2.2218933179312480e-17  2.2219918084469716e-17  2.2223682169359999e-17  2.2220000264760154e-17  2.2215581169350452e-17  2.2219885561260719e-17  2.2220365543792704e-17  2.2217195022309292e-17  2.2219850137544308e-17  2.2218585424569607e-17  2.2222466269495437e-17  2.2220705790007893e-17  2.2214173072173259e-17  2.2216322540621110e-17  2.2219700611888570e-17  2.2221632679685245e-17  2.2218395303244048e-17  2.2217722671932602e-17  2.2218755055554225e-17  2.2218269720793737e-17  2.2220677465889333e-17  2.2218600274167153e-17  2.2218413421432259e-17  2.2214663404014472e-17  2.2216856552340790e-17  2.2219715843907699e-17  2.2218451081542093e-17  2.2309022958678415e-17  2.2196410027865989e-17  2.2232054139892958e-17  2.2189072516846658e-17  2.2217187755393152e-17  2.2267712343101958e-17  2.2217696579042961e-17  2.2218753495103782e-17  2.2214845580797080e-17  2.2219764397120593e-17  2.2223003838189228e-17  2.2210337126795356e-17  2.2216064641513378e-17  2.2223528631739966e-17  2.2213215121673954e-17  2.2223663356178052e-17  2.2217908959360311e-17  2.2215153573943371e-17  2.2219048118054868e-17  2.2214120574385981e-17  2.2214496113595835e-17  2.2226640626781208e-17  2.2220047321417139e-17  2.2222114347294991e-17  2.2216366664399140e-17  2.2217922063231369e-17  2.2218961946842243e-17  2.2220841007589518e-17  2.2217820746742606e-17  2.2222446864214257e-17  2.2224461995027062e-17  2.2216074076363739e-17  2.2220706882187767e-17  2.2236026005266729e-17  2.2210189333144961e-17  2.2224469003476376e-17  2.2214006567394991e-17  2.2217018271139417e-17  2.2215558258469551e-17  2.2216647730823397e-17  2.2215689811678456e-17  2.2227112282863508e-17  2.2226116016234351e-17  2.2218847251457599e-17  2.2216446997660289e-17  2.2227361514161676e-17  2.2218862563054720e-17  2.2225018366369407e-17  2.2217696029115707e-17  2.2215286351959294e-17  2.2213529016400941e-17  2.2220305314565005e-17  2.2229779287581802e-17  2.2215399321532413e-17  2.2258786079734613e-17  2.2218653859383434e-17  2.2246333771668889e-17  2.2250780327591475e-17  2.2226667542844902e-17  2.2217183469061911e-17  2.2221788770162153e-17  2.2223746324585308e-17  2.2224991263192905e-17  2.2218079459311957e-17  2.2215940016734409e-17  2.2232400606990637e-17  2.2215725801679559e-17  2.2222083564723122e-17  2.2218737483201173e-17  2.2218033081494694e-17  2.2218983514769923e-17  2.2218644539410342e-17  2.2220749144124052e-17  2.2215454701560009e-17  2.2219748686993306e-17  2.2218150878584787e-17  2.2218362837170207e-17  2.2219837852782226e-17  2.2227120626626872e-17  2.2218790795028601e-17  2.2224876480050169e-17  2.2207352884917271e-17  2.2159299186278253e-17  2.2278593344130244e-17  2.2227646563610831e-17  2.2197725301107498e-17  2.2213211894056870e-17  2.2272989531667597e-17  2.2209928721255396e-17  2.2264437380596121e-17  2.2200662457049710e-17  2.2225257788360520e-17  2.2272390886362853e-17  2.2198480641559486e-17  2.2262389354260417e-17  2.2184003710867221e-17  2.2221130339539443e-17  2.2296974905390783e-17  2.2201974530417802e-17  2.2242448136777335e-17  2.2397669343607895e-17  2.2196740888803814e-17  2.2250875969724780e-17  2.2215999807010895e-17  2.2260117816764016e-17  2.2222326676465595e-17  2.2224309576294107e-17  2.2228519889429540e-17  2.2222336031710736e-17  2.2199871285874572e-17  2.2221267260495996e-17  2.2212674050073817e-17  2.2219269795374291e-17  2.2201392723897264e-17  2.2204632738431708e-17  2.2223551282444440e-17  2.2220614076163198e-17  2.2214897502589431e-17  2.2219395360609334e-17  2.2202450270554825e-17  2.2221790819964666e-17  2.2220008338426474e-17  2.2222321982411687e-17  2.2231202019133764e-17  2.2216528873278276e-17  2.2221327812572922e-17  2.2229049879430322e-17  2.2211636183516599e-17  2.2235128062523687e-17  2.2234185228473946e-17  2.2219890694467638e-17  2.2220115074257001e-17  2.2221186846870418e-17  2.2219251602459675e-17  2.2221125473966020e-17  2.2217906543167631e-17  2.2218642321983218e-17  2.2218095103355904e-17  2.2229884155589854e-17  2.2217649277313799e-17  2.2223312447906614e-17  2.2217395822695144e-17  2.2218724435564699e-17  2.2222814955305051e-17  2.2218540373382887e-17  2.2216471117069447e-17  2.2218420054754522e-17  2.2222705573921611e-17  2.2220581943915484e-17  2.2213677570837295e-17  2.2219153435021842e-17  2.2215683236636185e-17  2.2219914417202644e-17  2.2221683883236455e-17  2.2218644176277141e-17  2.2218865976138920e-17  2.2218198969395565e-17  2.2220213572449796e-17  2.2214985848605277e-17  2.2216934405743032e-17  2.2218265167553494e-17  2.2219772909688047e-17  2.2219069077367980e-17  2.2220434284883469e-17  2.2217415589153733e-17  2.2224302830106231e-17  2.2215117439839537e-17  2.2216150420809533e-17  2.2217544065917132e-17  2.2220450528167366e-17  2.2218754400737332e-17  2.2216407160114737e-17  2.2217628006951858e-17  2.2219847607880417e-17  2.2219073398850664e-17  2.2223025099080989e-17  2.2220873404863681e-17  2.2217497807211628e-17  2.2218733613174350e-17  2.2251955345160386e-17  2.2248453838549392e-17  2.2219480916956532e-17  2.2217077709235756e-17  2.2231049248550058e-17  2.2234901455699603e-17  2.2251095979827572e-17  2.2217721132958012e-17  2.2220219456620148e-17  2.2221168695825473e-17  2.2219481119195872e-17  2.2213563765811611e-17  2.2218777350365386e-17  2.2222571241430185e-17  2.2243921870620474e-17  2.2229208205569452e-17  2.2222432910805125e-17  2.2217404526162450e-17  2.2221028646143032e-17  2.3057368803227642e-17  2.2219249990497548e-17  2.2222079018065