<?xml version="1.0"?>
<VTKFile type="UnstructuredGrid"  version="0.1"  >
<UnstructuredGrid>
<Piece  NumberOfPoints="6854" NumberOfCells="27770">
<Points>
<DataArray  type="Float64"  NumberOfComponents="3"  format="ascii">12.762923 -48.953436 -21.283641  11.601017 -47.389573 -20.00941  10.558215 -47.3894005 -21.0523845  10.550101 -48.4352365 -20.0146625  8.337279000000001 -47.917037 -18.745684  9.388195 -46.8713735 -18.7404315  8.345393000000001 -46.871201 -19.783406  8.353507 -45.825365 -20.821128  9.396309 -45.8255375 -19.7781535  10.439111 -45.82571 -18.735179  12.767621 -53.206402 -17.025977  12.6546495 -50.5399175 -15.8054335  11.590475 -50.539886 -16.869639  11.5915135 -51.603201 -15.8052855  13.830757 -52.1431185 -17.026125  13.8297185 -51.0798035 -18.0904785  12.7665825 -52.14308699999999 -18.0903305  12.765544 -51.079772 -19.154684  14.893893 -51.079835 -17.026273  10.415406 -50 -14.584594  14.895902 -53.206407 -14.897691  14.760749 -50.5397785 -13.699472  14.740248 -51.6032035 -12.6565485  13.697414 -51.6032035 -13.6993825  15.959237 -52.142982 -14.8977805  17.022572 -51.079557 -14.89787  15.803583 -50.5397785 -12.656638  12.498926 -50 -12.501074  13.54176 -50 -11.45824  14.584594 -50 -10.415406  2.12453 -44.694372 -36.181098  2.1242935 -42.119619 -34.75608800000001  2.124692 -43.1836885 -33.6916195  1.062265 -43.1827075 -34.7550275  3.1865585 -43.6312835 -36.1821585  4.2489855 -43.63226450000001 -35.1187505  3.186957 -44.695353 -35.11769  4.249384 -44.696334 -34.054282  4.248587 -42.568195 -36.183219  0 -41.671043 -33.328957  8.497763000000001 -38.314348 -36.187889  7.404592500000001 -36.847608 -34.7478  7.403092000000001 -37.890382 -33.706526  6.349558 -37.8970215 -34.7534205  4.201353 -37.479695 -33.318952  5.256387500000001 -36.4302815 -33.3133315  5.254887 -37.4730555 -32.2720575  6.308421 -37.466416 -31.225163  6.3099215 -36.423642 -32.266437  6.311422 -35.380868 -33.307711  6.375125 -44.697854 -31.927021  6.347429999999999 -43.1755805 -29.476989  5.2841695 -43.1749865 -30.5408435  5.2804135 -44.218725 -29.5008615  7.438385499999999 -44.698448 -30.8631665  8.501645999999999 -44.699042 -29.799312  6.343674 -44.219319 -28.437007  4.185702 -43.739596 -27.074702  4.189458 -42.6958575 -28.114684  4.193214 -41.652119 -29.154666  10.625718 -42.573079 -29.801202  10.577175 -41.059952 -27.362873  9.513374000000001 -41.059448 -28.4271775  9.505876499999999 -42.1055725 -27.3885505  11.689519 -42.573583 -28.7368975  12.75332 -42.574087 -27.672593  10.5696775 -42.1060765 -26.324246  8.386035 -41.638066 -24.975899  8.393532499999999 -40.5919415 -26.014526  8.40103 -39.545817 -27.053153  17.010096 -42.576164 -23.41374  15.834273 -39.995767 -23.1699595  15.835677 -41.05933 -22.104993  14.794856 -41.05886599999999 -23.146278  17.008692 -41.512601 -24.4787065  17.007288 -40.449038 -25.543673  14.793452 -39.995303 -24.2112445  12.579616 -39.541568 -22.878816  13.620437 -39.542032 -21.837531  14.661258 -39.542496 -20.796246  17.020145 -48.953426 -17.026429  15.810464 -47.3919295 -15.797607  15.8025155 -48.4398385 -14.7576465  14.7622455 -48.439047 -15.7987075  12.504346 -47.924668 -14.570986  13.5525645 -46.8775505 -14.5698855  13.544616 -47.9254595 -13.529925  14.584886 -47.926251 -12.488864  14.5928345 -46.878342 -13.5288245  14.600783 -45.830433 -14.568785  10.622169 -38.316611 -34.06122  10.581709 -36.8450495 -31.5732415  10.582167 -35.7798325 -32.6380005  9.518359499999999 -36.84439 -32.6372505  12.749326 -37.252713 -32.997961  11.6855185 -38.3172705 -32.997211  11.6859765 -37.2520535 -34.06197  12.749784 -36.187496 -34.06272  12.748868 -38.31793 -31.933202  8.41455 -35.372169 -31.213281  17.024297 -53.206351 -12.769352  16.8410615 -51.6031755 -10.555763  18.0877915 -52.142879 -12.7693295  18.0885635 -53.2062355 -11.705201  19.15283 -53.20612 -10.64105  19.152058 -52.1427635 -11.7051785  19.151286 -51.079407 -12.769307  6.372464 -40.441859 -36.185677  4.233259 -41.07367499999999 -33.6930665  5.285772 -40.0032895 -33.7109385  4.232632 -40.0096305 -34.7577375  6.373091000000001 -41.5059035 -35.12100599999999  6.373718 -42.569948 -34.056335  5.286399 -41.067334 -32.6462675  2.0928 -39.577402 -33.329798  3.14594 -39.571061 -32.282999  4.19908 -39.56472 -31.2362  12.756446 -44.700945 -25.542609  11.6162 -43.1683035 -24.2154965  11.606438 -44.215913 -23.177649  10.5634835 -44.216078 -24.2204385  8.370521 -43.731211 -22.898268  9.423237499999999 -42.6834365 -22.893326  9.413475500000001 -43.731046 -21.8554785  10.45643 -43.730881 -20.812689  10.466192 -42.6832715 -21.8505365  10.475954 -41.635662 -22.888384  3.170616 -40.00850699999999 -35.820877  3.1706935 -41.0727985 -34.7565085  2.1242935 -41.080035 -35.795672  4.2485095 -41.5039035 -37.2475875  4.248432 -40.439612 -38.311956  2.124216 -40.0157435 -36.8600405  0 -39.591875 -35.408125  1.0464 -39.5846385 -34.3689615  10.631837 -46.826698 -25.541466  9.499546500000001 -44.2156955 -25.2847585  9.501179 -45.2789545 -24.219867  11.6941415 -45.7638215 -25.5420375  11.692509 -44.7005625 -26.606929  10.6302045 -45.76343900000001 -26.6063575  10.628572 -44.70018 -27.671249  12.69847 -34.7341915 -31.567338  11.6338825 -35.7752595 -31.590858  11.6357085 -34.73303850000001 -32.6312525  13.8125455 -36.188649 -32.9988055  14.875307 -36.189802 -31.934891  12.696644 -35.7764125 -30.5269435  10.521633 -33.278581 -31.199785  10.519807 -34.320802 -30.1593905  10.517981 -35.363023 -29.118996  1.062051 -42.118617 -35.819332  2.124316 -43.6302815 -37.2454025  2.124102 -42.566191 -38.309707  3.1863445 -42.567193 -37.24646300000001  14.891486 -48.953404 -19.15511  14.76921 -46.3278235 -17.902966  14.770682 -47.3907095 -16.8386085  13.7063525 -47.3906985 -17.902949  15.9543435 -47.890529 -19.155127  15.9558155 -48.953415 -18.0907695  17.018673 -47.89054 -18.0907865  17.017201 -46.827654 -19.155144  12.521219 -45.827993 -16.650788  16.86794 -50.5397035 -11.5923565  15.8044455 -51.6031755 -11.592379  15.62121 -50 -9.37879  16.657826 -50 -8.342174  12.6973715 -36.841076 -29.4615525  11.6334245 -36.84047649999999 -30.526099  11.595436 -49.500358 -17.904206  10.5497255 -50.539886 -17.9103885  8.333907 -50 -16.666093  9.3796175 -48.960472 -16.6599105  9.3746565 -50 -15.6253435  10.420367 -48.960472 -15.619161  10.425328 -47.920944 -16.653728  15.8241665 -42.107482 -21.068352  14.785529 -42.10597199999999 -22.108499  12.560962 -41.63578 -20.803258  13.61111 -40.589138 -20.799752  8.497714 -40.443543 -34.058742  7.403067500000001 -38.9549795 -32.6419525  6.3495335 -38.961619 -33.688847  6.348397 -40.0041315 -32.647471  5.253750500000001 -38.515568 -31.2306815  4.2002165 -38.5222075 -32.277576  6.349032 -41.068278 -31.58269  7.435716 -41.50674549999999 -34.0575385  8.498349000000001 -41.5076895 -32.993961  7.436351 -42.570892 -32.9927575  8.498984 -42.571836 -31.92918  7.399529 -39.9988375 -31.601633  7.400164 -41.062984 -30.536852  5.250212 -39.559426 -30.190362  6.301344 -39.554132 -29.144524  6.3048825 -38.510274 -30.1848435  12.759909 -46.827146 -23.412946  11.6081695 -45.2790135 -22.1128175  10.565215 -45.2791785 -23.155607  12.7581775 -45.76404549999999 -24.4777775  10.5712405 -43.1695055 -25.259254  9.507303499999999 -43.169123 -26.323574  11.690946 -43.6371335 -27.671921  12.754883 -43.637516 -26.607601  3.1707565 -37.9035435 -37.9257  3.170763 -38.9678335 -36.8614035  2.124216 -38.9693065 -37.9064775  4.2484255 -39.375322 -39.3762525  4.248419 -38.311032 -40.440549  2.1242095 -37.9050165 -38.970774  0 -37.499001 -37.500999  1.046547 -37.497528 -36.455925  2.093094 -37.496055 -35.410851  11.614637 -42.1048745 -25.2804885  9.430994500000001 -41.636864 -23.9321415  8.378278 -42.68463850000001 -23.9370835  6.349531000000001 -36.85475750000001 -35.7957115  4.201326 -36.437431 -34.361243  4.201299 -35.395167 -35.403534  5.2563605 -35.3880175 -34.3556225  8.4667955 -36.8487395 -33.6844655  9.559965999999999 -38.3154795 -35.1245545  8.465294999999999 -37.8915135 -32.6431915  7.361485500000001 -36.4192925 -31.219222  7.362986 -35.3765185 -32.260496  10.623341 -36.186409 -36.19025  10.5827115 -33.673045 -34.7442435  10.5822595 -34.7382545 -33.679486  9.519038 -34.737711 -34.743251  11.6870145 -35.121743 -36.1912425  12.750236 -35.1222865 -35.1274775  11.6865625 -36.1869525 -35.126485  12.750688 -34.057077 -36.192235  8.414735 -33.289013 -33.296252  -2.128413 -42.564387 -38.3072  -1.0642065 -42.117715 -35.8180785  -0.00194150000000004 -43.6293795 -37.244149  -0.002155499999999977 -42.56528900000001 -38.3084535  0 -44.692308 -38.307692  1.062051 -43.6292495 -38.3086995  1.062265 -44.69334 -37.244395  -1.0642065 -43.6283475 -38.307446  9.492672000000001 -46.3260315 -23.181297  8.4490035 -46.32723350000001 -24.223764  6.26617 -45.827769 -22.906062  7.3183455 -44.77949 -22.902165  7.3098385 -45.826567 -21.863595  8.362014 -44.778288 -21.859698  12.749907 -40.447026 -29.803067  11.6285725 -38.9492725 -28.422155  10.5754685 -39.9964215 -28.42811  10.581401 -38.95137 -29.467229  8.412895000000001 -37.455714 -29.131391  9.454134 -38.498668 -27.047198  9.4600665 -37.4536165 -28.086317  8.406962500000001 -38.5007655 -28.092272  10.507238 -37.451519 -27.041243  6.374034 -36.183265 -40.442701  5.286937 -34.7474755 -38.965588  4.2326795 -34.754618 -40.012703  4.2329845 -35.794764 -38.9722515  2.091935 -35.406263 -37.501802  3.1455825 -33.3188285 -38.53559  3.1458875 -34.3589745 -37.4951385  2.09163 -34.366117 -38.5422535  2.091325 -33.325971 -39.582705  4.19984 -33.311686 -37.488475  5.283466000000001 -42.1110335 -31.6055005  6.346099000000001 -42.11197749999999 -30.541923  4.196147 -40.6084195 -30.195433  4.2323965 -43.182868 -31.5847355  6.3744215 -43.63390099999999 -32.991678  4.231693 -42.118915 -32.6493925  2.089668 -41.667882 -31.24245  3.141441 -41.6600005 -30.198558  8.466174000000001 -38.95568400000001 -31.578142  9.5608205 -40.4442475 -32.9949315  10.623927 -40.444952 -31.931121  8.462635500000001 -39.99954200000001 -30.5378225  11.59951 -46.326428 -21.0740625  12.761416 -47.890291 -22.3482935  10.556
[...]
<PointData  Scalars="p_CO2"> 
<DataArray  type="Float64"  Name="p_CO2"  format="ascii">4.0000545989853080e+01  4.0003911935739481e+01  4.0004448361892571e+01  4.0004451285598485e+01  3.9997998685753885e+01  4.0001442430678885e+01  4.0001553936361091e+01  3.9999301023873905e+01  3.9999964809721277e+01  3.9999376240256083e+01  3.9995363520211662e+01  4.0030264107186795e+01  4.0034923407752139e+01  4.0025928358235973e+01  3.9999226332498210e+01  4.0002499469349559e+01  4.0000214017761635e+01  4.0002369142357189e+01  4.0003353657206169e+01  3.9993921939600661e+01  3.9997435831215455e+01  4.0045483642208040e+01  4.0015989195611617e+01  4.0021560879716553e+01  3.9998733063196127e+01  4.0002363511092966e+01  4.0031273851728287e+01  3.9991101250643396e+01  3.9979451376162224e+01  3.9990859855863548e+01  4.0000398702724169e+01  4.0048179921229682e+01  4.0059144939593857e+01  4.0036821736820947e+01  4.0000528841189613e+01  4.0003281260804435e+01  4.0000854518398434e+01  4.0004104706165592e+01  4.0004314037305768e+01  4.0004109064148139e+01  4.0000646420415265e+01  4.0002104475961723e+01  4.0002248962338328e+01  4.0002922823709291e+01  3.9998940646169430e+01  4.0001174546773953e+01  4.0000864079874887e+01  3.9999760937535271e+01  4.0000004511721144e+01  3.9999841445460177e+01  4.0001266545254808e+01  4.0002795293679107e+01  4.0006983977656525e+01  4.0007360746223583e+01  3.9999755002320093e+01  4.0000608091595460e+01  4.0002604946994317e+01  3.9999054023243424e+01  4.0000244392706890e+01  3.9999060573776674e+01  4.0000160505005532e+01  4.0000314858027721e+01  4.0000562841890648e+01  4.0000632831390654e+01  3.9999999540900632e+01  4.0000046057544878e+01  4.0000310803471443e+01  3.9999957777552638e+01  4.0000050195821629e+01  3.9999973282441076e+01  4.0000022562090976e+01  4.0000043866253577e+01  4.0000092630995823e+01  4.0000110788673545e+01  4.0000009384883747e+01  4.0000011498426254e+01  4.0000046569868339e+01  4.0000000350782784e+01  4.0000024507322259e+01  3.9999997709828705e+01  4.0000765953432705e+01  4.0004487999472580e+01  4.0004265396130705e+01  4.0005500824991508e+01  3.9997856539978088e+01  4.0001979113839404e+01  3.9997166114527879e+01  3.9999870645708462e+01  4.0001307554312156e+01  3.9999385526134347e+01  4.0000157642757500e+01  4.0000282257655748e+01  4.0000258214492725e+01  4.0000567248581547e+01  4.0000012474663087e+01  3.9999981271404756e+01  4.0000033038533516e+01  4.0000028583060775e+01  4.0000037524616332e+01  4.0000005197085898e+01  3.9995642754793550e+01  4.0012699370394181e+01  4.0001007987969928e+01  4.0001079425866514e+01  3.9997485401868673e+01  3.9998743760032561e+01  4.0003193435788084e+01  4.0001353964093219e+01  4.0008886185377705e+01  4.0007654730865475e+01  4.0009732518567418e+01  3.9999669797028837e+01  4.0001289735221860e+01  4.0007101277901384e+01  4.0010605976787609e+01  4.0003339056018604e+01  3.9999030044314665e+01  4.0000099491654147e+01  4.0000382510269056e+01  4.0000569443110116e+01  4.0000575084640865e+01  3.9999842908368265e+01  4.0000159804022360e+01  4.0000053372014435e+01  3.9999857536954387e+01  4.0000119675394913e+01  3.9999982350802298e+01  4.0028974370202732e+01  4.0019352867586733e+01  4.0058630590850399e+01  4.0003377026776548e+01  4.0004825795060619e+01  4.0049413475249601e+01  4.0005058336891139e+01  3.9940600185114711e+01  4.0000383428530057e+01  4.0000857906429268e+01  4.0001292928709404e+01  4.0000015707595800e+01  4.0000008220281693e+01  3.9999933300750200e+01  4.0000191732465588e+01  4.0000073769462539e+01  4.0000152850919100e+01  4.0000150509835827e+01  3.9999970139900512e+01  4.0000017835947858e+01  4.0000063227085995e+01  4.0000023783368611e+01  3.9999995445940954e+01  4.0000001707292377e+01  4.0040235256575635e+01  4.0005873027390194e+01  3.9999788837217295e+01  4.0000293803117685e+01  4.0000715345345746e+01  4.0001728382768810e+01  4.0004937074020084e+01  4.0004067846085007e+01  3.9999819498005706e+01  3.9999764622971959e+01  3.9999831819096507e+01  4.0000360557075936e+01  3.9999275110777297e+01  4.0035443995944227e+01  4.0019598818458249e+01  3.9991383742888146e+01  3.9988319183005466e+01  4.0000079026361263e+01  4.0000153859559283e+01  4.0011678904586219e+01  4.0028062851513148e+01  3.9993862895400468e+01  3.9965925737208231e+01  3.9997347793154582e+01  3.9974062205971144e+01  4.0002819520384925e+01  4.0000154492918242e+01  4.0000146311198769e+01  3.9999981676172098e+01  4.0000038398510910e+01  4.0000595151782143e+01  4.0001970825339825e+01  4.0002877356931904e+01  4.0002737157771513e+01  4.0001121421917041e+01  4.0000130731911533e+01  4.0002828141207594e+01  3.9999624050961181e+01  3.9999897557087444e+01  3.9999754237925032e+01  4.0000587883256571e+01  4.0002176794104642e+01  4.0001934133155778e+01  4.0000868406230516e+01  3.9999763095099254e+01  4.0000004794078819e+01  4.0000329482602190e+01  4.0001106920264760e+01  4.0001298810550367e+01  4.0000008302295420e+01  4.0000494968684109e+01  4.0000679069012421e+01  4.0000028204211809e+01  3.9999993028908257e+01  4.0033150335519643e+01  4.0021028691493335e+01  4.0062150712194409e+01  4.0005077358440694e+01  4.0002806643289475e+01  4.0065190828062185e+01  4.0005158956182818e+01  3.9942126848003213e+01  4.0011162898126351e+01  4.0000251437560223e+01  4.0000083766461820e+01  4.0000135143743300e+01  4.0003173159657038e+01  4.0000141844258302e+01  3.9998925396323216e+01  4.0000876497839521e+01  4.0000961413047605e+01  4.0000000845005736e+01  4.0000872309240840e+01  4.0000242280599672e+01  4.0000262352463274e+01  4.0000140361836714e+01  4.0000276306663835e+01  4.0000289700647393e+01  4.0000590266703853e+01  4.0000030460440733e+01  4.0000018176244630e+01  3.9999987730176436e+01  4.0000036590276146e+01  3.9999947589425837e+01  3.9997808402548053e+01  3.9975228603213537e+01  3.9998768447078767e+01  3.9999184799099609e+01  4.0001153438484387e+01  4.0003148859000618e+01  4.0003805851390887e+01  3.9997677948081552e+01  4.0001782170518759e+01  4.0001708662927797e+01  3.9999264981981817e+01  4.0000721389141219e+01  4.0000222205860460e+01  4.0000482024476206e+01  4.0000039153702240e+01  4.0000161599883697e+01  4.0000258378814955e+01  4.0000284397122641e+01  3.9999976125043020e+01  4.0000039779323998e+01  4.0000087065069323e+01  4.0000025012065102e+01  4.0000003761182910e+01  4.0001700847032041e+01  4.0007263134439263e+01  4.0010410386504560e+01  4.0011431797992252e+01  4.0002717556598249e+01  4.0003314750617250e+01  4.0003177933347125e+01  4.0007703889152609e+01  4.0004717928544949e+01  3.9998609866635029e+01  4.0007587664569066e+01  4.0002685838069482e+01  4.0000174979657203e+01  4.0008890645030561e+01  3.9999683234053741e+01  4.0009719699038001e+01  4.0010620104183026e+01  4.0003310781000046e+01  4.0000915767719029e+01  3.9999994294294460e+01  4.0000154915419202e+01  4.0000842311891716e+01  4.0001637532374971e+01  3.9999908422344284e+01  4.0001572559531787e+01  4.0000069217986486e+01  4.0000097061123974e+01  4.0000014094105559e+01  4.0000007339550052e+01  3.9999985275481521e+01  4.0000019946308910e+01  4.0000003003621515e+01  4.0001711025722791e+01  3.9999929997645971e+01  4.0010661578895792e+01  4.0024283611988487e+01  3.9970007177544140e+01  3.9970432945119470e+01  3.9985191200547504e+01  3.9999303310824118e+01  4.0004736125015881e+01  3.9999802479748418e+01  3.9999800214739643e+01  4.0001271494736137e+01  4.0009390823498059e+01  4.0009188768094418e+01  3.9999854153292965e+01  4.0000031701378703e+01  4.0000146273359960e+01  4.0000171863667674e+01  4.0000008823500799e+01  4.0000199777368678e+01  4.0000034671037163e+01  4.0000000479064788e+01  4.0002170476849010e+01  3.9999704048393085e+01  4.0010192136537370e+01  3.9999483377929963e+01  4.0003180589173283e+01  4.0000164464217711e+01  3.9999983950176279e+01  4.0000053084853050e+01  4.0000033533951097e+01  4.0000072523750113e+01  4.0000147636380312e+01  4.0000014011900802e+01  4.0000015886351186e+01  3.9999999179471807e+01  4.0000033442613031e+01  4.0000045541115774e+01  4.0000006034711198e+01  3.9999998738808017e+01  4.0000004000731423e+01  4.0000028782312228e+01  3.9999999812846966e+01  4.0000633198167769e+01  3.9999995183386005e+01  4.0002825803457362e+01  4.0003184045707151e+01  3.9999868710042286e+01  3.9999768027465592e+01  3.9999808693312765e+01  4.0000615394903278e+01  4.0000588047387815e+01  3.9999899548158119e+01  4.0023966334275052e+01  4.0001226978290596e+01  4.0000246776703349e+01  4.0000707401956646e+01  4.0003773401506038e+01  3.9999811605896674e+01  3.9999964669715609e+01  3.9999912994219216e+01  4.0000607918361830e+01  4.0000244508357724e+01  4.0000009420525672e+01  4.0001828096227783e+01  4.0004562757587330e+01  3.9990022857301675e+01  3.9991431872970111e+01  3.9989838142948010e+01  3.9993227987160147e+01  3.9988940583992324e+01  3.9989269134772840e+01  4.0041752222241271e+01  4.0008191066290507e+01  4.0008039730427789e+01  4.0011019499277012e+01  4.0003212650545322e+01  4.0003545681673266e+01  3.9994537328461931e+01  3.9986327246801601e+01  3.9983807306557068e+01  3.9995216274310486e+01  4.0001770775681308e+01  4.0000723895267718e+01  4.0001605066083982e+01  4.0005269850043099e+01  3.9997426691627872e+01  4.0001426853528990e+01  4.0001938350218531e+01  4.0002140906696155e+01  4.0001046424909937e+01  4.0000824589140571e+01  3.9999663004138192e+01  4.0000117058705968e+01  3.9999758386975607e+01  3.9999988120253008e+01  4.0000032705250348e+01  4.0000004451863411e+01  4.0000013158154616e+01  4.0000010979520262e+01  4.0000016846607735e+01  4.0000020519034734e+01  4.0000142526895523e+01  4.0000271447150361e+01  4.0000058817957310e+01  4.0000079159761768e+01  4.0000011833738348e+01  3.9999974510347485e+01  3.9999983243538217e+01  4.0000302200352714e+01  4.0000497607314038e+01  4.0000517987251335e+01  4.0001101654156663e+01  3.9999988375651341e+01  4.0000004774270330e+01  4.0000014401422774e+01  4.0000084754118959e+01  4.0000083926111166e+01  3.9999854721285629e+01  4.0000358877755062e+01  4.0000317730218214e+01  3.9999991005209004e+01  4.0000107145629983e+01  3.9994391429121762e+01  3.9989774887840184e+01  3.9996071186459133e+01  3.9996012205644817e+01  4.0001688181834396e+01  4.0001053116437767e+01  4.0000014992694069e+01  4.0000039588237620e+01  4.0000058502338362e+01  3.9999997779666998e+01  3.9999993398997397e+01  3.9964817758340807e+01  4.0000152643468418e+01  4.0000571737315809e+01  4.0000870869225665e+01  4.0001010743783866e+01  3.9999742991023176e+01  4.0000265056591246e+01  4.0000257280983263e+01  4.0000001824366080e+01  3.9999744354651817e+01  4.0000595585082444e+01  4.0000238706790611e+01  4.0000014606545186e+01  3.9999972281866441e+01  4.0002317950896888e+01  4.0002227564873536e+01  4.0000893675600530e+01  4.0001261164344712e+01  4.0001897783505868e+01  4.0000002051573226e+01  4.0000042233919203e+01  4.0000045215248136e+01  3.9999988278582883e+01  4.0000282492679830e+01  3.9999961677826207e+01  4.0000238684922891e+01  3.9957031684450882e+01  4.0004776893092469e+01  3.9999871658412282e+01  4.0000840344427012e+01  4.0000992114021280e+01  4.0000038218371301e+01  3.9999967329568889e+01  4.0000032192912357e+01  3.9916385330993592e+01  4.0036303290529773e+01  3.9915296555544003e+01  4.0015520050345145e+01  4.0020938038657235e+01  3.9997181106550812e+01  3.9968844134386806e+01  4.0028888312426659e+01  3.9941194183847784e+01  4.0015283884088639e+01  4.0003613185599768e+01  4.0000876425891732e+01  3.9999807241583859e+01  4.0018861623372651e+01  3.9979897932722281e+01  4.0006308801563918e+01  4.0000725728758638e+01  4.0002247928490789e+01  4.0002924788729700e+01  3.9999813459605335e+01  4.0000083273012635e+01  4.0014299008909148e+01  3.9972114135974920e+01  4.0000030456599859e+01  4.0000912775835936e+01  3.9999983484233390e+01  3.9999996230913275e+01  4.0000040722355138e+01  4.0000076203080461e+01  4.0000009682090990e+01  4.0000044399988241e+01  4.0000093757524816e+01  4.0000004046368993e+01  4.0001311467293917e+01  3.9999963469020813e+01  4.0000027373903144e+01  4.0001700171059099e+01  3.9999914967022335e+01  4.0035838027256503e+01  3.9960535650014890e+01  4.0002141092231497e+01  4.0000032017964955e+01  4.0000243056281093e+01  4.0014389104872158e+01  4.0003653897346481e+01  4.0009281767486812e+01  3.9999113430053349e+01  3.9998988569656206e+01  3.9997733487382376e+01  4.0022209767287592e+01  3.9999045634743247e+01  3.9997319641179175e+01  4.0000041434067015e+01  4.0000003302189768e+01  3.9999980044004836e+01  4.0000007148622664e+01  4.0000110511545039e+01  3.9999992670275880e+01  4.0000006703474256e+01  4.0000108814454393e+01  4.0002722603223937e+01  4.0002793621589923e+01  3.9998703872820023e+01  4.0001232915534217e+01  4.0000791890063013e+01  4.0000471960681324e+01  4.0004520094363350e+01  4.0000022963144211e+01  4.0006132666965172e+01  4.0000964707907777e+01  4.0001581030822891e+01  4.0000002134356244e+01  4.0000263045516107e+01  4.0000007110210483e+01  4.0000214894164650e+01  4.0000238181223089e+01  4.0000167206964129e+01  4.0000029882838852e+01  4.0000037010665778e+01  4.0000020107115290e+01  4.0000065441168836e+01  4.0000177020927566e+01  4.0000086906891454e+01  3.9912774139633989e+01  4.0001998847723932e+01  4.0000372674480737e+01  3.9999998147411723e+01  4.0000004516377672e+01  4.0005390480682323e+01  4.0002093948795356e+01  4.0000480913587921e+01  4.0000680011274703e+01  3.9999992146199006e+01  4.0000952226442180e+01  4.0000200637175162e+01  4.0001542808291767e+01  3.9999756478962588e+01  3.9999988962345476e+01  4.0000862914750087e+01  4.0000014454521086e+01  4.0007259559175203e+01  3.9999760245595425e+01  3.9999667430338150e+01  4.0033961819042496e+01  4.0057805859837472e+01  3.9998121722722189e+01  3.9946500276599039e+01  3.9964747472428158e+01  4.0001029239023786e+01  4.0000304702139978e+01  4.0000029460211380e+01  4.0000486679119248e+01  4.0000154669026479e+01  4.0000009947576864e+01  4.0001239368176392e+01  4.0000551518905809e+01  4.0000294930601051e+01  3.9999998384375573e+01  4.0000045205126590e+01  4.0000012042112388e+01  4.0000019710154824e+01  4.0000089017523571e+01  4.0000041640869725e+01  4.0000254673020272e+01  4.0000038949803290e+01  4.0000083407964084e+01  4.0000938661811077e+01  4.0004531480028433e+01  3.9999626027206759e+01  3.9999627738676878e+01  4.0000658851781481e+01  3.9998491489692640e+01  4.0002039054247440e+01  4.0000068455511496e+01  4.0000039391192679e+01  4.0000007242153984e+01  3.9999993933474826e+01  3.9999628383122761e+01  3.9999888788522469e+01  4.0000003816775262e+01  4.0000084847067313e+01  3.9999560637339052e+01  4.0020109372140489e+01  3.9997762626688306e+01  3.9999029435830209e+01  4.0000053338936510e+01  4.0000012875440220e+01  4.0001077051054388e+01  4.0000690699431686e+01  4.0000484589647968e+01  3.9981066186815831e+01  4.0004414569310924e+01  3.9999989334538242e+01  4.0037034916698545e+01  4.0000403395326273e+01  4.0025807145904771e+01  3.9985590488724142e+01  3.9998316857251147e+01  4.0000011693609366e+01  3.9999984820959789e+01  4.0000033564578125e+01  3.9990468890158795e+01  3.9999922210085892e+01  3.9999634517706056e+01  4.0000080374386741e+01  3.9994691595369993e+01  4.0001645410967775e+01  4.0001029103153307e+01  4.0003644504077641e+01  4.0000604195457669e+01  4.0000244825856399e+01  4.0000245104767778e+01  3.9999846135125196e+01  4.0002489377525855e+01  4.0000041733439176e+01  4.0000039502183782e+01  4.0000045647035712e+01  4.0000162972817478e+01  4.0000003156309319e+01  3.9999976240019578e+01  4.0020820938160796e+01  3.9971786792753953e+01  4.0000060040009487e+01  4.0000174463026113e+01  4.0000017495448901e+01  3.9999990362188065e+01  4.0032549509670190e+01  4.0000625926030928e+01  3.9999992902140974e+01  3.9999145270032137e+01  3.9999631039913453e+01  3.9999997003262493e+01  3.9999997906730044e+01  4.0000005124384252e+01  3.9999988030897988e+01  3.9999955428458314e+01  4.0000009583502425e+01  3.9999991844223608e+01  4.0000051115850169e+01  4.0000004522468004e+01  3.9999990834382544e+01  3.9999993374036940e+01  4.0000002143778183e+01  4.0000021076322099e+01  4.0000002680388278e+01  3.9999988345143670e+01  4.0000041228714657e+01  3.9999943778711597e+01  3.9999993763938576e+01  4.0000007280433906e+01  3.9999989494785112e+01  3.9999988888874412e+01  3.9999998691969004e+01  3.9999950614769368e+01  4.0000006028743840e+01  4.0000037018126122e+01  3.9999999782471711e+01  3.9999997318936821e+01  4.0000003238761231e+01  4.0000014049159169e+01  4.0000020776239062e+01  4.0000059437821918e+01  3.9999996503376373e+01  4.0000009538395894e+01  3.9999985474199271e+01  3.9999987900670448e+01  3.9999988036726783e+01  4.0000000289985216e+01  3.9999998522192172e+01  3.9999990972881612e+01  4.0000035011386416e+01  3.9999994967145177e+01  3.9999993051095082e+01  4.0000002061558703e+01  3.9999987023513611e+01  4.0000001896643049e+01  3.9999925456374058e+01  4.0000015376554899e+01  4.0000053359195732e+01  3.9999971394010316e+01  4.0000005526263266e+01  3.9999988251695711e+01  3.9999987835288472e+01  4.0000056499858246e+01  3.9999941041670674e+01  3.9999988118557340e+01  3.9999993993638526e+01  3.9999993207660353e+01  4.0000000069163512e+01  4.0000045817975554e+01  3.9999942703745646e+01  3.9999990646133291e+01  3.9999989103997265e+01  3.9999988900698447e+01  3.9999976866556118e+01  3.9999985608081928e+01  3.9999936848142731e+01  4.0000049715295631e+01  4.0000009691848526e+01  4.0000060860071905e+01  3.9999885289156786e+01  3.9999976862290204e+01  4.0000020759418803e+01  3.9999936591203316e+01  4.0000008321445520e+01  3.9999938396044385e+01  4.0000010321252759e+01  3.9999984602057935e+01  4.0000004205562355e+01  3.9999987276904420e+01  4.0000028795566067e+01  3.9999952875034822e+01  4.0000009596824633e+01  3.9999950239803688e+01  3.9999994032829335e+01  4.0000001777850571e+01  4.0000041490946742e+01  3.9999946348511465e+01  3.9999993007406729e+01  4.0000055639389615e+01  3.9999985830759464e+01  4.0000043810722453e+01  3.9999941319327540e+01  3.9999988688927729e+01  3.9999985040995654e+01  3.9999980863089505e+01  3.9999958888860164e+01  4.0000037806337410e+01  4.0000016446264354e+01  3.9999937455431166e+01  4.0000086114560297e+01  3.9988875959956701e+01  4.0055251766599000e+01  3.9981499676459741e+01  4.0031538491315587e+01  3.9983670237499538e+01  3.9988638487097987e+01  4.0000871858096538e+01  4.0000005842244221e+01  4.0000034644406654e+01  4.0000087737455885e+01  4.0000141594735020e+01  4.0000022230284209e+01  4.0000019898088119e+01  4.0000061591576404e+01  4.0000118053187052e+01  4.0000081355946350e+01  4.0000104235035991e+01  4.0000130987267219e+01  4.0000584924697954e+01  4.0000692102694821e+01  4.0000669353786670e+01  4.0000164078810720e+01  4.0000132244955651e+01  4.0000139495584357e+01  4.0000143113578801e+01  4.0000081183288927e+01  4.0001125433630797e+01  3.9999079510154964e+01  3.9999880951725885e+01  3.9999089383330102e+01  3.9999268882535560e+01  3.9999337262216351e+01  3.9999799650750674e+01  3.9999220011340917e+01  3.9998962409533824e+01  3.9999815874222712e+01  4.0000250207940496e+01  4.0004870917788146e+01  4.0004214375724537e+01  4.0003941594119127e+01  4.0004394699812188e+01  4.0004290512472203e+01  4.0003023982286997e+01  4.0002541262650425e+01  4.0003258697617518e+01  4.0002891104209361e+01  4.0002142467800844e+01  4.0008162575796966e+01  3.9998646349554186e+01  4.0003369346964853e+01  4.0003328709069237e+01  4.0000372590240602e+01  4.0002815719025577e+01  4.0003833658623051e+01  4.0003473584671219e+01  4.0001784798177134e+01  4.0003661568138135e+01  4.0003307654778958e+01  4.0002356520556525e+01  4.0002836137293812e+01  4.0002309297353577e+01  4.0002709021744550e+01  4.0003252262048299e+01  4.0003517626302546e+01  3.9998816384450990e+01  3.9999467408109808e+01  3.9999549659694303e+01  3.9999296596689305e+01  3.9999156439461750e+01  3.9999029033503874e+01  3.9999386558660163e+01  3.9999397053404707e+01  3.9999613979410583e+01  3.9999447657452478e+01  3.9999956172704081e+01  3.9998904947565542e+01  4.0000604980733733e+01  3.9998672653008285e+01  3.9997930863599294e+01  4.0000057884815931e+01  4.000012649318289