<?xml version="1.0"?>
<VTKFile type="UnstructuredGrid"  version="0.1"  >
<UnstructuredGrid>
<Piece  NumberOfPoints="6795" NumberOfCells="27491">
<Points>
<DataArray  type="Float64"  NumberOfComponents="3"  format="ascii">34.061421 29.812147 -19.126433  33.635033 27.407718 -17.9572495  32.5955045 28.440695 -17.963801  33.64138800000001 28.4387 -16.9199125  31.129588 27.069243 -16.801169  32.1691165 26.036266 -16.7946175  32.1754715 27.067248 -15.7572805  33.208645 25.003289 -16.788066  32.602498 29.4733695 -16.924133  31.1365815 28.1019175 -15.761501  21.269646 36.212789 -25.517565  19.9714625 34.751869 -24.276669  18.9376765 35.7952615 -24.2670625  19.9755165 35.793984 -23.2304995  18.681387 35.375179 -20.943434  18.677333 34.333064 -21.9896035  17.643547 35.3764565 -21.979997  16.605707 35.377734 -23.01656  17.639493 34.33434149999999 -23.0261665  18.673279 33.290949 -23.035773  27.662743 31.953814 -23.383444  26.2732595 30.5446835 -22.182058  27.314535 30.5452515 -21.140214  26.2784315 31.5789415 -21.142628  24.89412 31.204069 -18.901812  25.9250515 29.136121 -19.938828  24.888948 30.169811 -19.941242  25.9302235 30.170379 -18.899398  26.966327 29.136689 -18.896984  24.883776 29.135553 -20.980672  29.796369 31.949526 -21.254105  28.381348 30.5431075 -20.0755445  28.387805 31.577492 -19.034703  29.42348 30.5409525 -19.035568  29.050591 29.132379 -16.817031  28.008459 29.134534 -17.8570075  28.014916 30.1689185 -16.816166  26.979241 31.205458 -16.815301  26.972784 30.1710735 -17.8561425  19.141938 40.464965 -23.393097  18.941965 37.90251 -22.155525  17.8778075 38.9649565 -22.157236  18.9167865 38.9624495 -21.120764  20.2060955 39.4025185 -23.391386  21.270253 38.340072 -23.389675  19.980944 37.900003 -21.119053  18.691635 37.459934 -18.848431  17.652656 37.462441 -19.884903  16.613677 37.464948 -20.921375  19.97582 36.8576255 -22.1665545  18.686511 36.4175565 -19.8959325  17.647532 36.4200635 -20.9324045  17.013758 42.589948 -23.396294  14.7399635 41.0763805 -23.183656  17.01334 41.526809 -24.459851  15.950048 42.588491 -24.4614615  14.886338 42.587034 -25.526629  14.7395455 40.0132415 -24.247213  13.6762535 41.0749235 -24.2488235  15.94963 41.525352 -25.5250185  17.012922 40.46367 -25.523408  12.466169 39.562813 -22.971018  31.930064 31.945523 -19.124413  30.4903275 30.538951 -17.970722  30.499577 31.5768205 -16.9236025  31.5368195 30.5400575 -16.923123  29.06909 31.208118 -14.722792  29.0598405 30.1702485 -15.7699115  30.097083 29.1334855 -15.769432  23.399743 36.213718 -23.386539  22.073326 33.68604550000001 -23.2406285  21.0086305 34.7495365 -23.241833  22.073679 34.750001 -22.17632  23.39939 35.1497625 -24.4508475  22.3346945 36.2132535 -24.452052  22.3343415 35.149298 -25.5163605  23.399037 34.085807 -25.515156  20.747615 33.286284 -20.966101  16.8430665 40.011172 -22.1457615  15.7789765 41.07366349999999 -22.14736  16.8183955 41.072054 -21.1095505  18.077848 41.5274565 -23.3946955  17.8824855 40.0095625 -21.107952  16.623033 39.55416 -18.822807  15.583614 39.5557695 -19.8606165  14.544195 39.557379 -20.898426  31.529826 29.507383 -17.962791  30.0900895 28.100811 -16.8091  25.239432 31.581738 -22.1788305  23.8551205 31.2068655 -19.9380145  22.816121 31.209662 -20.974217  23.8499485 30.1726075 -20.9774445  14.885235 40.460828 -27.653937  14.7372435 38.969567 -25.2931895  13.6734 38.968146 -26.358454  13.675702 40.0118205 -25.3124775  15.9490785 40.462249 -26.5886725  12.463867 38.5191385 -24.0169945  12.461565 37.475464 -25.062971  25.532367 36.21106 -21.256574  25.2454465 33.6833675 -20.071186  24.1795885 34.748031 -20.072381  25.221155 34.74811750000001 -19.0307275  26.598225 35.1463965 -21.255379  27.664083 34.081733 -21.254184  26.287013 33.683454 -19.0295325  24.909943 33.285175 -16.804881  23.8683765 33.2850885 -17.8465345  22.82681 33.285002 -18.888188  21.015096 36.85601 -21.128894  22.334998 37.276895 -23.388107  22.335977 38.3393415 -22.324682  22.079841 35.792833 -21.127326  23.400722 37.2761645 -22.323114  21.040565 35.7944485 -22.1649865  21.2699495 37.2764305 -24.45362  17.012628 38.336205 -27.651166  15.772286 36.8603415 -26.367372  15.7748855 37.9035205 -25.3215935  14.7370965 37.9058345 -26.3570685  14.5345435 36.427657 -24.0377995  13.4967545 36.429971 -25.0732745  13.499354 37.47315 -24.027496  14.537143 37.470836 -22.992021  14.531944 35.384478 -25.083578  21.271252 40.466002 -21.262747  19.9814435 38.962968 -20.055589  21.2707525 39.403037 -22.326211  20.206595 40.4654835 -22.327922  19.725787 36.415941 -18.858272  20.759939 35.371948 -18.868113  19.720663 35.3735635 -19.9057735  21.046668 37.8992725 -20.05406  21.036158 33.688378 -24.2754645  19.710447 33.2886165 -22.000937  26.5988585 36.2091365 -20.1920055  27.6647165 35.144473 -20.1908105  15.9489315 39.3985165 -27.6525515  17.012775 39.3999375 -26.587287  23.1132765 34.74936 -21.1373635  24.4655305 35.148775 -23.3856945  24.466055 36.212389 -22.3215565  24.179064 33.684417 -21.136519  25.5318425 35.147446 -22.320712  25.531318 34.083832 -23.38485  23.1394665 33.685058 -22.1754755  23.107579 32.6477345 -23.2446865  24.4651775 34.0848195 -24.450003  24.1737195 32.646747 -22.1795335  21.781868 32.247973 -20.970159  29.424074 31.6047465 -17.97118  30.8632165 31.9475245 -20.189259  30.8638105 33.0113185 -19.124871  29.797557 34.077114 -19.125329  29.796963 33.01332 -20.189717  24.1727905 31.583298 -23.2439115  26.5961015 31.955374 -24.448525  26.5970305 33.018823 -23.384147  25.530389 33.020383 -24.449228  25.52946 31.956934 -25.513606  19.140166 38.339696 -25.520139  17.8729365 36.858715 -24.2683495  16.836055 36.862087 -25.3018585  16.8386545 37.905266 -24.25608  15.571425 36.424285 -23.0042905  15.5688255 35.381106 -24.050069  10.632571 42.580247 -29.787182  10.5348725 40.0146975 -28.450429  10.5349595 41.078506 -27.386534  9.471693999999999 41.076625 -28.4516805  11.6957495 41.5183195 -29.7859305  11.6958365 42.582128 -28.7220355  12.759102 42.584009 -27.656889  12.759015 41.5202005 -28.720784  12.758928 40.456392 -29.784679  8.310817 39.573003 -27.116179  15.7750325 38.967253 -24.2577145  13.6790175 42.119272 -23.201711  14.7427275 42.120729 -22.1365435  12.471697 41.65151 -20.876793  12.468933 40.6071615 -21.9239055  26.5977005 34.0827825 -22.319517  20.753777 34.329116 -19.917107  21.7933745 34.328475 -18.8781505  21.7872125 33.285643 -19.9271445  18.076397 38.33795050000001 -26.5856525  18.076544 39.40168300000001 -25.5217735  25.212719 32.6439505 -21.143331  22.8214655 32.247332 -19.9312025  26.2791015 32.642901 -20.077998  23.860465 32.2445355 -18.895  24.9020315 32.244622 -17.8533465  18.9107765 36.8574375 -23.2317865  20.204906 37.2762425 -25.518852  19.714501 34.3307315 -20.9547675  27.3452445 31.5767975 -20.0779585  25.9366805 31.2047635 -17.8585565  28.388399 32.641286 -17.970315  15.782894 42.1187255 -21.0983805  14.55203 41.647503 -18.800467  14.5481125 40.602441 -19.8494465  13.5118635 41.6495065 -19.83863  13.507946 40.6044445 -20.8876095  17.8769215 37.902322 -23.220757  16.609692 36.421341 -21.9689675  15.57541 37.467892 -21.956698  19.141052 39.40233050000001 -24.456618  20.2052095 38.339884 -24.454907  16.618355 38.509554 -19.872091  17.657334 38.507047 -18.835619  13.501656 38.5168245 -22.9815195  24.4642485 33.0213705 -25.514381  13.6734175 37.9041195 -27.422463  12.6353945 38.9714075 -27.3931975  14.8852525 39.3968015 -28.717946  14.88527 38.332775 -29.781955  12.635412 37.907381 -28.4572065  10.385554 37.481987 -27.132458  11.4235595 37.4787255 -26.0977145  18.9471425 40.010081 -20.042777  19.143056 42.590502 -21.266442  17.8830445 41.07233100000001 -20.0446245  18.9233745 41.070677 -19.0059485  20.207154 41.528252 -21.2645945  19.9874725 40.008427 -19.004101  18.703693 39.550852 -16.745455  17.663363 39.552506 -17.784131  18.697664 38.505393 -17.796943  17.888063 42.11728 -18.994657  16.63307 41.644058 -16.722872  16.6280515 40.599109 -17.7728395  16.847543 42.1190025 -20.0334545  15.59255 41.6457805 -17.7616695  15.5875315 40.6008315 -18.811637  27.35375 33.6811445 -17.965105  28.396262 33.679381 -16.924357  28.729556 31.95167 -22.3187745  28.730226 33.0156295 -21.2541445  27.663413 33.0177735 -22.318814  24.186339 35.7887125 -19.024949  22.8335605 34.3256835 -17.840756  12.6367095 40.014577 -26.3487135  10.388184 39.568326 -25.04349  11.4248745 38.521895 -25.0532305  10.386869 38.52515649999999 -26.087974  14.7353775 36.86376 -27.400862  12.459846 36.4333895 -26.1067645  12.458127 35.391315 -27.150558  13.4950355 35.3878965 -26.117068  13.6716985 36.86204499999999 -28.4662565  15.948949 38.33449 -28.7165605  11.4218405 36.436651 -27.141508  23.146153 35.791504 -20.0623435  15.578936 38.51116349999999 -20.9099005  18.078407 42.590225 -22.331368  19.142497 41.5277335 -22.3297695  29.4333235 32.642616 -16.9240605  28.73082 34.0794235 -20.1897565  16.8132995 38.964309 -23.2223915  15.7785585 40.0105245 -23.210917  18.07743 40.4643175 -24.4582525  14.540669 38.51410749999999 -21.9452235  13.505182 39.560096 -21.934722  11.573556 40.012359 -27.4140845  11.572241 38.9691895 -28.4585685  9.3481855 38.527495 -27.1243185  9.349500500000001 39.5706645 -26.0798345  13.822099 39.3945835 -29.783317  13.8220815 40.45861 -28.719308  13.8221685 41.5224185 -27.655413  28.0241655 31.206788 -15.7690465  27.321662 32.6435955 -19.0347425  25.944592 32.2453165 -16.810091  2.126951 40.438179 -40.43487  1.0634755 37.92426 -40.0122645  3.1904275 39.3752925 -40.4342805  2.1270185 39.3739795 -41.499002  2.127086 38.30978 -42.563134  2.126952 36.8613735 -40.011675  1.063543 36.8600605 -41.0763965  3.190495 38.311093 -41.4984125  4.253904 38.312406 -40.433691  0 35.410341 -39.589659  0.001585499999999795 39.37393400000001 -41.5005655  0.001517999999999908 40.4381335 -40.4364335  -1.0619575 37.92421450000001 -40.013828  -2.123915 40.438088 -40.437997  0 38.307692 -44.692308  0.001656999999999798 37.2454385 -43.6289515  0.001566499999999804 38.309681 -42.5647995  -1.0619765 38.308637 -43.6293865  2.1271765 37.2455375 -43.627286  1.0636
[...]
<PointData  Scalars="p_CO2"> 
<DataArray  type="Float64"  Name="p_CO2"  format="ascii">3.9999973779826853e+01  3.9999980867392701e+01  3.9999984116022723e+01  4.0000003197215463e+01  3.9999991256019534e+01  3.9999903793081714e+01  4.0000049321574643e+01  3.9999991399394858e+01  3.9999999903021902e+01  4.0000017209992471e+01  4.0000014963824540e+01  4.0000011444702714e+01  3.9999997171387079e+01  4.0000003075533300e+01  4.0000005162612041e+01  3.9999985118296209e+01  4.0000030890815331e+01  4.0000014926752996e+01  3.9999979583864217e+01  4.0000001595577849e+01  3.9999986737640427e+01  3.9999965287640165e+01  3.9999918576912478e+01  3.9999970547339252e+01  4.0000019919991033e+01  4.0000029411095490e+01  3.9999966704424942e+01  3.9999962965446947e+01  3.9999967060030478e+01  3.9999983604261800e+01  3.9999969249918848e+01  3.9999944281954704e+01  3.9999924876720648e+01  3.9999988334745083e+01  3.9999994262254845e+01  4.0000032799172544e+01  3.9999933779295894e+01  4.0000005527712020e+01  4.0000006717567672e+01  4.0000017586029230e+01  4.0000007212803375e+01  4.0000035488151930e+01  4.0000033604395448e+01  3.9999998222356169e+01  4.0000014261407173e+01  4.0000009718076996e+01  4.0000005403027018e+01  4.0000038200397938e+01  4.0000003633362148e+01  4.0000010666883398e+01  3.9999983211408150e+01  3.9999988221900097e+01  4.0000023249104323e+01  4.0000095684491768e+01  4.0000009775210231e+01  4.0000004364036577e+01  4.0000028084727568e+01  4.0000035731323244e+01  4.0000088363761911e+01  3.9999988490096356e+01  4.0000009960526640e+01  3.9999999714374795e+01  3.9999965425594361e+01  3.9999970767346468e+01  3.9999937808553454e+01  3.9999992430282674e+01  3.9999957387060874e+01  4.0000006892137826e+01  4.0000044439229661e+01  4.0000013673485526e+01  3.9999997336764650e+01  4.0000010462185237e+01  4.0000004218362136e+01  4.0000013146250808e+01  3.9999978861048255e+01  4.0000013698658677e+01  4.0000012366429651e+01  4.0000005438666662e+01  4.0000062768831441e+01  4.0000087611484098e+01  4.0000114040122583e+01  3.9999979249851293e+01  4.0000043589689433e+01  4.0000002490127180e+01  4.0000031268932801e+01  4.0000006369696038e+01  3.9999982321797184e+01  3.9999919758068216e+01  3.9999983542866318e+01  4.0000091485763399e+01  4.0000014513281364e+01  3.9999938760851180e+01  4.0000015447583749e+01  4.0000037000896768e+01  4.0000042233028800e+01  4.0000048107044854e+01  3.9999996814566735e+01  3.9999997116088501e+01  4.0000003033642699e+01  4.0000016390349742e+01  3.9999978249525256e+01  3.9999999909712450e+01  4.0000003901097081e+01  3.9999996631368852e+01  3.9999984642428615e+01  3.9999985679985315e+01  4.0000008599194743e+01  4.0000059334780488e+01  4.0000008309025155e+01  4.0000014112880095e+01  4.0000004583136771e+01  3.9999980567453242e+01  3.9999999175932096e+01  4.0000019008149714e+01  3.9999995518943940e+01  4.0000009316897710e+01  4.0000010431616083e+01  4.0000021537186825e+01  4.0000009874126782e+01  4.0000016012548478e+01  3.9999984092858703e+01  4.0000003304462574e+01  4.0000023824991430e+01  4.0000013646863792e+01  4.0000004948372712e+01  4.0000017781287987e+01  4.0000028119541490e+01  4.0000015054777798e+01  3.9999984394808337e+01  3.9999993528610943e+01  4.0000005448983856e+01  4.0000044425268349e+01  4.0000006805977094e+01  3.9999992375137971e+01  4.0000043631974563e+01  3.9999963678068674e+01  4.0000033000558830e+01  3.9999992136847830e+01  4.0000016258214892e+01  4.0000007308131352e+01  4.0000006003873494e+01  3.9999974063793005e+01  3.9999990793029497e+01  4.0000024318628746e+01  4.0000016578081492e+01  3.9999987247367152e+01  4.0000008466503289e+01  3.9999976508992034e+01  3.9999998351395000e+01  3.9999977520233898e+01  3.9999950657794713e+01  3.9999979503821315e+01  4.0000001066554525e+01  3.9999996313673876e+01  4.0000045635015411e+01  3.9999990056274669e+01  3.9999951713750811e+01  4.0000015098697801e+01  4.0000016280308380e+01  3.9999983226634299e+01  4.0000015135303030e+01  4.0000031544770444e+01  4.0000022697018913e+01  4.0000038718830311e+01  3.9999989105977335e+01  4.0000022459087354e+01  4.0000143511683810e+01  4.0000124908659835e+01  4.0000169904878497e+01  4.0000338956276764e+01  3.9999998336669158e+01  3.9999959218674306e+01  4.0000046369827466e+01  4.0000025045792057e+01  4.0000038704297239e+01  3.9999925978210918e+01  4.0000035483694120e+01  4.0000133852628132e+01  4.0000125235355974e+01  3.9999976562971867e+01  4.0000024294941291e+01  3.9999971948948485e+01  3.9999977386035361e+01  3.9999989866836330e+01  4.0000052735132250e+01  3.9999995557846191e+01  3.9999981767397301e+01  3.9999994814337811e+01  3.9999961629355951e+01  3.9999982935276606e+01  3.9999981478230069e+01  3.9999948401903573e+01  4.0000015367858325e+01  4.0000005365095049e+01  3.9999984377085461e+01  3.9999948950824262e+01  4.0000082788593652e+01  3.9999983745419669e+01  4.0000138624853825e+01  3.9999982521722941e+01  4.0000017185297807e+01  4.0000017756149951e+01  4.0000033644738032e+01  4.0000013902283875e+01  3.9999986664193457e+01  4.0000027544827368e+01  4.0000001024013123e+01  3.9999981046664772e+01  3.9999991788886803e+01  4.0000002221197448e+01  4.0000007174328147e+01  4.0000015297966975e+01  4.0000029452554244e+01  4.0000060218706082e+01  4.0000017151144831e+01  3.9999998792461810e+01  4.0000044038011872e+01  3.9999993181583342e+01  4.0000031968643832e+01  4.0000044122944374e+01  4.0000031940404455e+01  4.0000096547677209e+01  4.0000106531036714e+01  3.9999994238837921e+01  4.0000042522921774e+01  4.0000005666897366e+01  4.0000043333975015e+01  3.9999984317427227e+01  4.0000152379437942e+01  3.9999985009783948e+01  4.0000013594941052e+01  4.0000173357079454e+01  4.0000037179233964e+01  4.0000029958550797e+01  3.9999964953199559e+01  3.9999986429025199e+01  3.9999986281857346e+01  4.0000003139878032e+01  4.0000070568685295e+01  3.9999997709932728e+01  3.9999968330629301e+01  4.0000051326788601e+01  3.9999987619234993e+01  3.9999996818493642e+01  4.0000026415516800e+01  4.0000026101167620e+01  3.9999992107595141e+01  4.0000004429922029e+01  4.0000027212187383e+01  4.0000033664675414e+01  3.9999991472871663e+01  3.9999995719624160e+01  3.9999993083605112e+01  4.0000000387758924e+01  4.0000008624250803e+01  4.0000009318174079e+01  4.0000008928082742e+01  3.9999934124595718e+01  4.0000042144873944e+01  4.0000037168762880e+01  4.0000002875894893e+01  3.9999989898722532e+01  4.0000021605641180e+01  4.0000108873215432e+01  4.0000100809928604e+01  3.9999996939041623e+01  4.0000049003885920e+01  4.0000004250851362e+01  3.9999988024888033e+01  3.9999999728472439e+01  4.0000049772536499e+01  4.0000000568912803e+01  3.9999996173009592e+01  3.9997995580252514e+01  4.0027882872849588e+01  3.9997371875609737e+01  4.0005522337151120e+01  4.0000327028212070e+01  4.0054443457494600e+01  4.0038415102092316e+01  4.0000904730459354e+01  4.0004220237493627e+01  3.9994525069187631e+01  3.9999379104432379e+01  3.9999802152666255e+01  3.9959367502712723e+01  4.0001655784353446e+01  3.9999935380132790e+01  3.9998784416151139e+01  4.0000035611319632e+01  3.9995635824798768e+01  4.0004399730748013e+01  4.0003461407185014e+01  4.0003156537049080e+01  4.0000023477930853e+01  3.9999575226379740e+01  4.0024073613402365e+01  3.9958514149272879e+01  4.0036390035388997e+01  3.9994565465516324e+01  4.0061342465924454e+01  4.0002963149968707e+01  4.0000607369011007e+01  4.0005793528528933e+01  3.9966762950310006e+01  4.0045924579116935e+01  4.0002404724075184e+01  3.9964955700118352e+01  4.0006552611936627e+01  4.0039229072632907e+01  4.0017333275043043e+01  4.0067943896945046e+01  4.0004622927256428e+01  4.0075888650387959e+01  3.9936295474458433e+01  3.9998787648073467e+01  4.0007300429733291e+01  3.9998814203340793e+01  3.9998182581398055e+01  4.0001346612900768e+01  4.0000011048027218e+01  3.9996125109039070e+01  3.9999878256535702e+01  4.0003491798315579e+01  4.0050311271422018e+01  3.9963288152196029e+01  4.0000411782727205e+01  3.9962541552555081e+01  3.9993115198352740e+01  3.9995801529058674e+01  4.0003311046547168e+01  4.0001194919811525e+01  4.0005526852663493e+01  3.9999352810589698e+01  3.9999581167022754e+01  4.0001155488130166e+01  4.0000078117913439e+01  4.0000100401778681e+01  4.0000262961087053e+01  4.0000261390690852e+01  3.9999997715706414e+01  4.0000004671159438e+01  4.0000087578931947e+01  3.9999971098935362e+01  4.0000065012661757e+01  4.0000001936319876e+01  4.0000021241495176e+01  3.9999998866817599e+01  3.9999968250571492e+01  3.9999989087433583e+01  4.0000008099894039e+01  4.0000016377379978e+01  3.9999989049153577e+01  3.9999995653515491e+01  4.0000010575355908e+01  4.0000009317209489e+01  3.9999711537490974e+01  4.0000129245374104e+01  4.0000567641467498e+01  4.0000456537208422e+01  4.0000539152025858e+01  4.0000522871758207e+01  4.0001650263194009e+01  4.0001456029639179e+01  3.9999982680245807e+01  3.9999833101035385e+01  4.0000633529502139e+01  3.9999948409865368e+01  4.0000136193628656e+01  3.9999745966543436e+01  4.0000007383499401e+01  4.0000014878098639e+01  4.0000032053389234e+01  4.0000041895821390e+01  4.0000002501048677e+01  4.0000011487396755e+01  4.0000002647530387e+01  3.9999976350707854e+01  3.9999996709641323e+01  3.9999997219864042e+01  3.9999997153364205e+01  4.0000001539660701e+01  3.9999978129801484e+01  3.9999973562400491e+01  3.9999966450059013e+01  3.9999979320662000e+01  4.0000000653863303e+01  3.9999998293949361e+01  3.9999933856275845e+01  3.9999996896721065e+01  4.0000071243206492e+01  4.0000230394680898e+01  4.0000293875502543e+01  4.0000213730496242e+01  4.0000006627970279e+01  4.0000068613144954e+01  4.0000273448787958e+01  3.9999973440372386e+01  4.0000117602633480e+01  3.9999838828175214e+01  4.0000015629339408e+01  4.0000054349306886e+01  4.0000130876959162e+01  4.0000106072962289e+01  4.0000005044656021e+01  4.0000013287219780e+01  4.0000030607933205e+01  4.0000011934069533e+01  3.9999992863110108e+01  3.9999994344398146e+01  3.9999994275421471e+01  4.0000008628289251e+01  4.0000017932760080e+01  4.0000008135447821e+01  3.9999999848379922e+01  4.0000026216132888e+01  4.0000006910954980e+01  3.9999967261697925e+01  3.9999996553699617e+01  3.9999996470100662e+01  4.0006935220971187e+01  4.0006597932558158e+01  4.0001064108507094e+01  4.0001344295347458e+01  3.9999184842908562e+01  4.0000260493633547e+01  4.0000579157912867e+01  4.0000036677616954e+01  4.0000012845992984e+01  3.9999990009818937e+01  3.9999999117686393e+01  4.0032610139008035e+01  3.9999293688125817e+01  4.0003056480065517e+01  4.0005565584095201e+01  4.0005290656974971e+01  4.0014031537089082e+01  3.9997935877828226e+01  4.0000976596229620e+01  3.9998797156084620e+01  4.0000005905957998e+01  4.0000036956640180e+01  4.0000062523051866e+01  4.0000082480729475e+01  3.9999987848769059e+01  3.9999996117490177e+01  4.0000055320964726e+01  3.9999996794158342e+01  4.0000059790325118e+01  4.0000006666670338e+01  4.0000043812287352e+01  4.0000109938108189e+01  4.0000052561929927e+01  3.9999959793096210e+01  4.0000103779817863e+01  4.0000099573005812e+01  4.0000062987791168e+01  3.9999988752178581e+01  4.0000041088719755e+01  3.9999984486408160e+01  4.0000221128142755e+01  3.9999993039846885e+01  4.0000031966378174e+01  4.0000150674772470e+01  3.9999983072685239e+01  3.9999996260566768e+01  4.0000003749463460e+01  3.9999980408184506e+01  4.0000008384499317e+01  4.0000016874317588e+01  4.0000004735280541e+01  4.0000116325195428e+01  3.9999904600658290e+01  4.0000005200801127e+01  3.9999953726740969e+01  4.0000002526872990e+01  4.0000034790020656e+01  4.0000033999301529e+01  4.0000063495336491e+01  4.0000019499958640e+01  4.0000000495458345e+01  4.0000053990688421e+01  4.0000007515097465e+01  4.0000041614673485e+01  3.9999997520975207e+01  4.0001156595555649e+01  4.0001389707120069e+01  4.0004209377670421e+01  4.0004055453669281e+01  3.9999515698729816e+01  4.0000372542403596e+01  4.0001177949134224e+01  3.9999412688128274e+01  4.0000180376254214e+01  3.9999991043252720e+01  3.9999995560499698e+01  4.0000005110742599e+01  3.9999911138285199e+01  3.9999994116967102e+01  3.9999969879268285e+01  4.0000009132075846e+01  3.9999989467846603e+01  4.0000011584591711e+01  4.0000038270510288e+01  4.0000011184875582e+01  3.9999994645320960e+01  3.9999942048287352e+01  4.0000044741710660e+01  3.9999987274236609e+01  4.0000052260413526e+01  3.9999981959473395e+01  4.0000016545853143e+01  4.0000046208437567e+01  4.0000332907676871e+01  4.0000271137627493e+01  4.0000338205934682e+01  4.0000809161812370e+01  3.9999945023006035e+01  3.9999900595458293e+01  4.0000088079323859e+01  4.0000075775083310e+01  4.0000065532258702e+01  3.9999827629331079e+01  4.0000055609612339e+01  4.0000015838776406e+01  4.0000042163276461e+01  4.0000072737090868e+01  4.0000104862396498e+01  4.0000003640227206e+01  4.0000056697497683e+01  3.9999988875644632e+01  4.0000047691522610e+01  3.9999995460979420e+01  4.0000872234354681e+01  4.0003305488130984e+01  4.0003528991002696e+01  4.0003371138048898e+01  3.9999177612227029e+01  4.0001022514393178e+01  4.0000926948737863e+01  4.0001361645264595e+01  3.9999856628134793e+01  3.9999964760467520e+01  3.9999988296450994e+01  4.0000015489949064e+01  4.0000022672603940e+01  3.9999983694001543e+01  3.9999931816493984e+01  4.0000073370403413e+01  4.0000020974161195e+01  4.0000758402930295e+01  4.0001013745762776e+01  4.0001016184052595e+01  4.0003129733966126e+01  3.9999539275364853e+01  3.9999529878262180e+01  4.0000349325043125e+01  4.0000334287492940e+01  3.9999983999813701e+01  3.9999976673558422e+01  4.0000000270649110e+01  4.0000003230494350e+01  3.9999992018305250e+01  4.0000024761536956e+01  4.0000036986534312e+01  3.9999993560670113e+01  3.9999978978571626e+01  4.0000002976900127e+01  4.0000008406590482e+01  4.0000014059232974e+01  4.0000011188391639e+01  4.0000030575555137e+01  4.0000021843346474e+01  3.9999990400994484e+01  4.0000019004156769e+01  3.9999989498619058e+01  4.0000039766010666e+01  4.0000000853168444e+01  4.0000031152023979e+01  4.0000071818445328e+01  4.0000041959575213e+01  3.9999964996138750e+01  4.0000005291532055e+01  3.9999990081020371e+01  3.9999993653025385e+01  3.9999943191187008e+01  3.9999999438649432e+01  3.9999986173399051e+01  3.9999990865348899e+01  3.9999998991871294e+01  4.0000010683402131e+01  4.0000007899408615e+01  3.9999952810671608e+01  3.9999977459286811e+01  4.0000566324234178e+01  4.0001580627652181e+01  3.9999951048209496e+01  3.9999830939551188e+01  4.0000571527344363e+01  4.0000543217325564e+01  4.0001445669030673e+01  4.0000013614254314e+01  4.0000143512335526e+01  3.9999697790017130e+01  3.9999988474235529e+01  4.0000003655080292e+01  4.0000004508524860e+01  4.0000036559130223e+01  3.9999971227512624e+01  3.9999980962313877e+01  4.0000074246170236e+01  4.0000015715296200e+01  4.0000017064425492e+01  4.0000037038727378e+01  4.0000084540472507e+01  4.0000074894353155e+01  3.9999998015915608e+01  3.9999996619947517e+01  4.0000036019194148e+01  3.9999989807751369e+01  3.9999984619854786e+01  3.9999994123603464e+01  4.0000034046462197e+01  3.9999971637045469e+01  4.0000015365996795e+01  3.9999965151012773e+01  4.0000121295298548e+01  4.0000143067992752e+01  4.0000154016801631e+01  4.0000359746590092e+01  4.0000005430823506e+01  3.9999956752859696e+01  4.0000037956750042e+01  4.0000020282089466e+01  3.9999945060484762e+01  4.0000000411818796e+01  4.0000017095910536e+01  4.0000020441319222e+01  4.0000037251864661e+01  3.9999952273730557e+01  3.9999977522332095e+01  4.0000018540371528e+01  4.0000012801765337e+01  4.0000021019668345e+01  4.0000286344593100e+01  3.9999962097218742e+01  4.0000057410327493e+01  4.0000075560935208e+01  4.0000113520432556e+01  4.0000264460505662e+01  3.9999978683623702e+01  4.0000132371901344e+01  4.0000454805785481e+01  4.0000407225738712e+01  4.0000576025720349e+01  3.9999719939433902e+01  4.0000292890577093e+01  4.0000161142634994e+01  3.9999926260913952e+01  3.9999986791318001e+01  3.9999942853512813e+01  4.0000007928239647e+01  4.0000022749619426e+01  4.0000071449817860e+01  4.0000057824004401e+01  3.9999984605604844e+01  4.0000012217676201e+01  4.0000027652772104e+01  3.9999996502708001e+01  3.9999998204550806e+01  4.0000016578325791e+01  3.9999989329279146e+01  4.0000013690243335e+01  4.0000009676147066e+01  3.9999967815561128e+01  3.9999992164187141e+01  3.9999966781581776e+01  4.0000128107743450e+01  3.9999996180686026e+01  3.9999986345606366e+01  4.0000006113400580e+01  3.9999996667081142e+01  3.9999996669106743e+01  3.9999999250248912e+01  4.0000011268894262e+01  4.0000020932158044e+01  4.0000009525901383e+01  4.0000005895906057e+01  3.9999956415792624e+01  3.9999992806654468e+01  4.0000005977517098e+01  4.0000000846232062e+01  4.0000023696491404e+01  4.0000046661047165e+01  4.0000014926086827e+01  3.9999999830391182e+01  4.0000012551517088e+01  4.0000017013858795e+01  3.9999996370869781e+01  3.9999957976783257e+01  4.0000006604447719e+01  4.0000018844614949e+01  4.0000040086122603e+01  4.0000001256817910e+01  4.0000029301448642e+01  3.9999989337126827e+01  3.9999955886653481e+01  4.0000018024954564e+01  4.0000005774166240e+01  4.0000021645027267e+01  4.0000019816918346e+01  4.0000372882827058e+01  4.0000125047320807e+01  4.0000429838356098e+01  4.0000020404206012e+01  4.0000016449965820e+01  3.9999998620875111e+01  4.0000017494026707e+01  4.0003535043584932e+01  4.0001345664783770e+01  4.0001887042957634e+01  4.0006746617984831e+01  3.9998605256089341e+01  3.9998998236925594e+01  4.0001077987745759e+01  4.0001293279547262e+01  4.0000606329522839e+01  3.9996697291983921e+01  4.0000420776084972e+01  4.0001401802021029e+01  4.0001083345562400e+01  4.0001267589361959e+01  4.0000327122316030e+01  4.0000397044409418e+01  4.0000997775334788e+01  3.9999356887068210e+01  4.0000482325980578e+01  3.9999868998692321e+01  4.0001055805134392e+01  3.9999447986865235e+01  4.0004228541379618e+01  3.9999740787745601e+01  4.0001444458292347e+01  4.0001043117896927e+01  4.0001402033930901e+01  4.0003957362958666e+01  4.0000000686153371e+01  3.9999933963992255e+01  3.9999961752305495e+01  4.0000387368253314e+01  4.0003682788603420e+01  3.9999916014911207e+01  4.0000010007538052e+01  4.0000028360103755e+01  4.0000030228494012e+01  4.0000005521058213e+01  4.0000022245538275e+01  3.9999987975033903e+01  3.9999996683465355e+01  3.9999977658009335e+01  4.0000015449653510e+01  3.9999989843601981e+01  4.0000006735738644e+01  3.9999984656509987e+01  3.9999990410644543e+01  4.0000001840868840e+01  3.9999971229813326e+01  3.9999974578189196e+01  4.0000012463042935e+01  4.0000033086961601e+01  4.0000008354111991e+01  3.9999985845486663e+01  4.0002325216290153e+01  4.0001361052649663e+01  4.0000622993885173e+01  4.0001343219753316e+01  3.9995808762322376e+01  4.0001488101133681e+01  3.9999276965995584e+01  4.0003593570248377e+01  3.9998506915278121e+01  4.0022723957335138e+01  3.9999483405604963e+01  4.0003912104451672e+01  4.0003553702152900e+01  4.0004680086871979e+01  4.0009819599060819e+01  3.9997870571389292e+01  4.0000149127941860e+01  4.0000404936188524e+01  4.0000517821478276e+01  4.0000613987726794e+01  4.0000292257946967e+01  3.9999937872088772e+01  3.9999688370792299e+01  4.0000113173316066e+01  3.9999943266825291e+01  4.0001470351117817e+01  4.0001851967337338e+01  4.0000177276838379e+01  4.0001164689930022e+01  4.0000861408651446e+01  3.9999940436159818e+01  4.0000033760730858e+01  4.0000015022171560e+01  4.0000051140941189e+01  4.0000029428402911e+01  4.0000006070578486e+01  3.9999972833510498e+01  4.0000039202700194e+01  4.0000020068452081e+01  4.0000020888594157e+01  3.9999981924633119e+01  3.9999976611190029e+01  4.0000030619196160e+01  4.0000839168471593e+01  4.0000628334499588e+01  4.0002066106340472e+01  4.0001328445917345e+01  3.9999694301352619e+01  4.0000613895233570e+01  3.9999713914428497e+01  4.0000321619554917e+01  3.9999454006686200e+01  4.0000014235867106e+01  3.9999961025770688e+01  4.0000061436141785e+01  4.0000019700292192e+01  4.0000012264594659e+01  4.000000551742292