<?xml version="1.0"?>
<VTKFile type="UnstructuredGrid"  version="0.1"  >
<UnstructuredGrid>
<Piece  NumberOfPoints="6757" NumberOfCells="27769">
<Points>
<DataArray  type="Float64"  NumberOfComponents="3"  format="ascii">14.886338 42.587034 -25.526629  13.6762535 41.0749235 -24.2488235  12.6394455 42.12106350000001 -24.2394915  13.6790175 42.119272 -23.201711  12.471697 41.65151 -20.876793  12.468933 40.6071615 -21.9239055  11.432125 41.6533015 -21.9145735  10.392553 41.655093 -22.952354  11.429361 40.608953 -22.961686  12.466169 39.562813 -22.971018  13.675702 40.0118205 -25.3124775  12.637261 41.07768 -25.2850595  14.8857865 41.523931 -26.590283  14.885235 40.460828 -27.653937  12.6367095 40.014577 -26.3487135  10.388184 39.568326 -25.04349  11.4271765 39.5655695 -24.007254  14.88733 44.713056 -23.399614  14.7427275 42.120729 -22.1365435  13.6795135 43.182283 -22.1382035  15.950048 42.588491 -24.4614615  14.886834 43.65004500000001 -24.4631215  15.950544 43.651502 -23.397954  17.013758 42.589948 -23.396294  12.759102 42.584009 -27.656889  11.573643 41.0761675 -26.3501895  10.5349595 41.078506 -27.386534  10.53584 42.1217925 -26.3423675  8.312578 41.659576 -25.027846  9.350381 40.613951 -25.035668  8.311697500000001 40.6162895 -26.0720125  8.310817 39.573003 -27.116179  9.349500500000001 39.5706645 -26.0798345  10.632571 42.580247 -29.787182  9.471693999999999 41.076625 -28.4516805  9.4725745 42.1199115 -27.407514  11.6958365 42.582128 -28.7220355  11.5758275 42.119551 -25.3046215  10.3903685 40.6117095 -23.997922  9.352565500000001 41.6573345 -23.9901  13.8221685 41.5224185 -27.655413  13.82272 42.5855215 -26.591759  12.759744 44.710756 -25.5295  11.5761485 43.1829245 -24.240927  13.823041 43.648895 -25.5280645  12.759423 43.64738250000001 -26.5931945  15.9490785 40.462249 -26.5886725  8.4323485 42.121948 -28.445703  6.232126 41.663649 -27.104224  7.271471500000001 40.618326 -27.1102015  7.272352 41.6616125 -26.066035  10.633055 44.707355 -27.65959  9.4728165 43.1834655 -26.343718  11.6960785 43.645682 -27.6582395  10.632813 43.643801 -28.723386  10.536161 43.185166 -25.278673  11.6963995 44.70905550000001 -26.594545  12.463867 38.5191385 -24.0169945  12.6399415 43.1840745 -23.175984  13.823537 44.711906 -24.464557  11.573556 40.012359 -27.4140845  8.431938000000001 41.0791325 -29.4889295  6.2317155 40.6208335 -28.1474505  -18.211892 55.333333 5.848245  -16.2267815 52.63582649999999 4.7211725  -17.955205 53.963234 4.4635325  -18.4842615 52.66666650000001 6.045807  -16.4834685 54.0059255 6.105885000000001  -18.756631 50 6.243369  -18.2275745 51.29656749999999 4.6610945  -16.755838 51.339259 6.303447  -14.755045 52.678518 6.363525  -17.698518 52.593135 3.07882  -19.152595 53.208764 10.638641  -18.9756215 50.541972 9.4824065  -18.954613 51.604382 8.441005000000001  -17.912 51.604382 9.483618  -20.2162165 52.146354 10.6374295  -21.279838 51.083944 10.636218  -20.0182345 50.541972 8.4397935  -16.671405 50 8.328595  -17.714018 50 7.285982000000001  -10.638992 53.208628 19.15238  -10.553632 50.54225750000001 17.904111  -9.489697 50.54173400000001 18.968569  -9.490583000000001 51.604314 17.905103  -11.702041 52.1465715 19.151388  -11.701155 51.0839915 20.214854  -10.638106 52.146048 20.215846  -10.63722 51.083468 21.279312  -12.76509 51.084515 19.150396  -8.342174 50 16.657826  -19.153846 55.333333 8.512821000000001  -20.216879 53.20857700000001 9.574543500000001  -18.9552385 52.66666650000001 7.378095  -20.2175045 54.2708615 8.5116335  -19.1532205 54.27104850000001 9.575731000000001  -21.281163 53.20839 8.510446  -20.018897 51.604195 7.3769075  -12.763448 48.95928 21.277272  -12.66708 47.383779 18.949141  -11.6031165 47.3831665 20.0137165  -11.5948465 48.4354865 18.9696675  -13.8274115 48.9598925 20.2126965  -14.891375 48.960505 19.148121  -12.65881 48.436099 17.905092  -10.426245 47.911693 16.662063  -10.434515 46.85937300000001 17.706112  -10.442785 45.807053 18.750161  -13.270698 55.333333 7.206509  -12.5095415 54.01455350000001 6.416592  -12.837068 55.333333 5.862339  -11.8410135 55.333333 6.8298325  -10.411329 55.333333 6.453156  -11.079857 54.01455350000001 6.039915499999999  -11.4073835 55.333333 5.4856625  -12.403438 55.333333 4.518169  -12.0759115 54.01455350000001 5.072422  -11.748385 52.695774 5.626675  -8.336893999999999 55.333333 8.397462000000001  -8.716350500000001 53.9253955 7.442211500000001  -7.997202999999999 55.333333 6.965497000000001  -9.3741115 55.333333 7.425309  -8.376659500000001 53.9253955 6.0102465  -9.753568000000001 53.9253955 6.4700585  -9.0344205 55.333333 5.993344  -7.657512 55.333333 5.533532  -9.095807000000001 52.517458 6.486961  -10.6743735 54.01455350000001 4.680756  -11.0019 55.333333 4.126503  -10.0058455 55.333333 5.0939965  -9.600362000000001 55.333333 3.734837  -14.889442 46.835758 21.2748  -14.779221 44.204963 20.015816  -14.7802405 45.2672725 18.952487  -13.715863 45.267071 20.017066  -15.9528 45.77365 21.27355  -15.9538195 46.8359595 20.210221  -17.018197 46.836161 19.145642  -17.0171775 45.7738515 20.208971  -17.016158 44.711542 21.2723  -12.542284 43.698384 18.759332  -17.020012 48.960816 17.019172  -16.876267 46.3185375 15.805196  -16.8532085 47.380302 14.76649  -15.8128245 47.3806315 15.8065445  -18.0834545 47.898722 17.0178235  -19.146897 46.836628 17.016475  -17.916651 46.318208 14.7651415  -14.605637 45.800447 14.593917  -15.646021 45.8001175 13.5538625  -16.686405 45.799788 12.513808  -18.084411 48.960803 15.9547855  -19.14881 48.96079 14.890399  -17.9176075 47.380289 13.7021035  -19.1478535 47.898709 15.953437  -15.8052035 48.434721 14.7600755  -14.590395 47.908626 12.500979  -15.6384 46.854207 12.5073935  -14.598016 46.85453649999999 13.547448  -16.8696025 48.434708 13.695689  -9.025487999999999 55.333333 11.287899  -8.865771500000001 52.8692915 11.709413  -10.3917545 52.733856 11.6222945  -8.780079000000001 54.069589 10.3974875  -9.1111805 54.13303550000001 12.5998245  -10.306062 53.9341535 10.310369  -9.196873 52.932738 13.91175  -11.586636 52.534974 9.332839  -10.060653 52.6704095 9.419957499999999  -8.53467 52.805845 9.507076  -13.023262 50 4.581913  -13.307956 51.4381415 2.3668305  -13.7562525 51.4381415 3.788216  -14.0398965 50 3.4122625  -12.5749655 50 3.1605275  -15.056531 50 2.242612  -14.772887 51.4381415 2.6185655  -13.5916 50 1.990877  -12.126669 50 1.739142  -14.489243 52.876283 2.994519  -18.358468 50 4.7271975  -19.79746 50 5.202540000000001  -20.838289 50 4.161711  -19.2684035 51.29656749999999 3.6202655  -19.399297 50 3.6863685  -17.960305 50 3.211026  -17.8294115 51.29656749999999 3.144923  -23.406508 46.834262 12.75923  -22.1313515 44.205956 12.662693  -21.067082 45.26879 12.664129  -22.131948 45.268168 11.5998845  -23.4059115 45.77205 13.8220385  -22.341642 46.834884 13.8234745  -21.276776 46.835506 14.887719  -22.3410455 45.772672 14.886283  -23.405315 44.709838 14.884847  -20.857388 43.702074 10.440539  -11.5956675 49.498104 17.9062295  -10.5545255 49.499419 18.946056  -9.384209500000001 48.9558465 16.6599445  -8.3430675 48.9571615 17.699771  -8.343961 47.914323 18.741716  -9.385103000000001 47.913008 17.7018895  -18.655547 55.333333 3.5409705  -17.667296 55.333333 4.5592935  -19.200143 55.333333 4.829922  -20.188394 55.333333 3.811599  -18.943456 53.963234 3.4452095  -17.1227 55.333333 3.270342  -17.410609 53.963234 3.174581  -11.589773 50.54225750000001 16.86797  -9.378315000000001 50 15.621685  -10.414456 50 14.585544  -10.4203505 48.9558465 15.6238035  -10.163352 50 3.885035  -10.580062 51.3395965 2.403563  -11.0778825 51.567367 3.4525695  -9.5984035 51.3395965 3.4765095  -11.1450105 50 2.8120885  -12.059541 51.567367 2.379623  -9.033455 52.679193 3.067984  -10.512934 52.9069635 3.044044  -11.992413 53.134734 3.020104  -6.381581 48.953551 27.664868  -6.3473205 46.3238505 26.328829  -6.3475575 47.3874545 25.264988  -5.284017 47.3864235 26.329559  -7.444884500000001 47.890978 27.664138  -7.445121499999999 48.954582 26.600297  -8.508661999999999 48.955613 25.535726  -8.508424999999999 47.892009 26.599567  -8.508188000000001 46.828405 27.663408  -4.186453 45.819296 24.99425  -15.713225 51.339259 7.34606  -16.2818905 50 6.838581  -15.2501855 50 7.917247  -13.828966 50 7.505899  -15.3237105 51.339259 5.856046  -14.2920055 51.339259 6.934712  -14.860671 50 6.427233  -15.892376 50 5.348567  -12.012485 51.391632 0.893791  -10.465878 52.7312285 1.558212  -11.945357 52.95899900000001 1.534272  -11.898301 52.783264 0.04844  -18.9587165 47.3804195 12.6608635  -17.911334 48.431947 12.656718  -16.673858 47.903104 10.423037  -17.7212405 46.8515765 10.4271825  -16.6801315 46.851446 11.4684225  -17.727514 45.7999185 11.472568  -18.768623 45.800049 10.431328  -21.278346 48.959713 12.761941  -20.0234845 47.379881 11.5966345  -20.019958 48.432526 10.547516  -18.976102 48.4314085 11.592489  -18.7650965 46.852694 9.3822095  -17.717714 47.9042215 9.378064  -18.76157 47.905339 8.333091  -18.963336 45.265863 14.7708005  -17.924393 45.264067 15.81154  -17.73309 44.747443 12.519467  -16.694147 44.745647 13.5602065  -16.701889 43.691506 14.606605  -17.740832 43.693302 13.5658655  -18.779775 43.695098 12.525126  -20.213578 48.9602515 13.82617  -11.602422 46.3203235 21.0772545  -12.6661135 46.3214055 20.0124805  -13.8257505 46.834676 22.339574  -12.7627535 47.896437 22.34081  -13.826445 47.897519 21.276036  -12.762059 46.833594 23.404348  -13.118814 52.7860285 4.310597  -13.4463405 54.10480800000001 3.756344  -13.5792415 54.0059255 5.440847  -14.622144 52.7774005 4.679022  -13.251715 52.687146 5.9951  -13.8891535 51.339259 5.472719  -12.3858235 51.347887 5.104293999999999  -12.5078375 51.567367 3.8010085  -11.870399 52.915254 4.323389499999999  -13.240828 53.0055085 3.0073115  -12.1979255 54.2340335 3.7691365  -17.3245035 50 5.795968  -16.795447 51.29656749999999 4.2136935  -10.5615995 47.385161 21.0532395  -10.560905 46.322318 22.1167775  -8.359750999999999 45.811042 20.829207  -9.401268 45.80904750000001 19.789684  -25.535914 44.707713 12.756372  -23.174352 43.1
[...]
<PointData  Scalars="p_CO2"> 
<DataArray  type="Float64"  Name="p_CO2"  format="ascii">4.0000028084727568e+01  4.0000088363761911e+01  4.0000123080839451e+01  4.0000133852628132e+01  3.9999976562971867e+01  4.0000024294941291e+01  4.0000023889129395e+01  3.9999964651284031e+01  4.0000016988171247e+01  3.9999999714374795e+01  4.0000048107044854e+01  4.0000104176289035e+01  4.0000006863230539e+01  4.0000015447583749e+01  4.0000051326788601e+01  3.9999987619234993e+01  4.0000029246873623e+01  4.0000085037745301e+01  4.0000125235355974e+01  4.0000274390833013e+01  4.0000004364036577e+01  4.0000000148307961e+01  3.9999989308885887e+01  4.0000023249104323e+01  4.0000046369827466e+01  4.0000131022356662e+01  4.0000169904878497e+01  4.0000166036167684e+01  3.9999907034402000e+01  4.0000002237189641e+01  4.0000150294120765e+01  3.9999925978210918e+01  4.0000049003885920e+01  4.0000143511683810e+01  4.0000338956276764e+01  4.0000395590087102e+01  3.9999959218674306e+01  4.0000172977670509e+01  4.0000050107406246e+01  4.0000045098192381e+01  3.9999999728472439e+01  3.9999993037943938e+01  4.0000098766980322e+01  4.0000292391944924e+01  3.9999998777638339e+01  4.0000006535528080e+01  3.9999996814566735e+01  4.0000399942987734e+01  3.9999705697131517e+01  4.0000069885636634e+01  4.0000145964898273e+01  4.0000183096791503e+01  4.0000450586424449e+01  3.9999996141425086e+01  4.0000096858588492e+01  4.0000335684848380e+01  3.9999956373158234e+01  3.9999997116088501e+01  4.0000306265359136e+01  3.9999986640160273e+01  4.0000108873215432e+01  4.0000456537208422e+01  4.0000567641467498e+01  4.0004826595310590e+01  4.0006607412926066e+01  4.0015070666898602e+01  4.0034924310688766e+01  4.0013070657359350e+01  4.0003272719500650e+01  4.0017506446837416e+01  4.0021593645253297e+01  3.9994560842232509e+01  3.9994679829108165e+01  4.0004376120542425e+01  3.9963775225790364e+01  3.9969972630592856e+01  3.9968255255321836e+01  3.9999403145809097e+01  3.9997684516436514e+01  3.9963815393983907e+01  3.9998619416365571e+01  4.0001274478309597e+01  4.0000763345183671e+01  3.9972465717357998e+01  3.9964940431545557e+01  3.9979065925019825e+01  4.0000494921310036e+01  3.9998222790989452e+01  3.9999982537606499e+01  3.9997363794622991e+01  3.9996828419441123e+01  3.9997165786770211e+01  3.9995890279050379e+01  3.9997744075131386e+01  4.0014218350811937e+01  4.0002442029936546e+01  4.0003061464203860e+01  4.0004877829677540e+01  3.9971101717897866e+01  3.9999440442958516e+01  3.9995862882274082e+01  3.9996688835100876e+01  3.9995893389614480e+01  4.0000276955891977e+01  3.9999222973000705e+01  3.9994442852907348e+01  3.9997379400668549e+01  3.9998031077965038e+01  4.0000678757749441e+01  4.0002138308479083e+01  4.0004274519177073e+01  4.0000228727372338e+01  4.0000111560790579e+01  4.0000323067419188e+01  4.0000995411933928e+01  4.0000134585619243e+01  4.0000460552349963e+01  4.0000927414211802e+01  4.0001192791269261e+01  3.9999996578483220e+01  4.0001121482748900e+01  4.0000198104634208e+01  4.0000328843577208e+01  4.0000506966626531e+01  4.0000585767711904e+01  3.9999977471072469e+01  4.0000050300089534e+01  4.0000539064009246e+01  4.0000975525092883e+01  3.9999948453318751e+01  4.0000018297536307e+01  4.0000157429039902e+01  3.9999692453325515e+01  3.9999552990300309e+01  3.9998741086242973e+01  3.9998996315153249e+01  4.0000015611938800e+01  4.0000049145927335e+01  3.9999664683013407e+01  3.9999981065858776e+01  3.9999920195404265e+01  4.0000166737871446e+01  3.9999138567833015e+01  3.9997624822046525e+01  3.9994245356152341e+01  3.9994903909396186e+01  4.0000172989727460e+01  3.9999670559763302e+01  3.9997974793828959e+01  4.0000924993641810e+01  4.0000014225765291e+01  4.0000795164470603e+01  3.9999880496032411e+01  3.9999175897644136e+01  3.9995484683875461e+01  4.0000104279872552e+01  3.9991278264763693e+01  3.9997799349446460e+01  3.9997616904049089e+01  3.9997981918860802e+01  3.9992474889374563e+01  4.0000574625650366e+01  4.0002738284447226e+01  4.0018070490769290e+01  4.0003486347074933e+01  4.0003790088576835e+01  4.0005338384627294e+01  3.9999978744814342e+01  3.9996532639296476e+01  4.0000362089740044e+01  4.0000468545706994e+01  4.0000057595198228e+01  4.0000796555155716e+01  4.0002646143769717e+01  4.0000244371639390e+01  4.0000330143118461e+01  3.9999509711803512e+01  4.0001714756918631e+01  4.0000548857270836e+01  3.9999992965204456e+01  4.0001635691036647e+01  3.9953870346493765e+01  3.9997082883801752e+01  3.9996496532751344e+01  4.0020571178363674e+01  3.9984751829076451e+01  4.0007159742456849e+01  4.0008860580972886e+01  3.9999667709870167e+01  3.9999511090831120e+01  3.9998642772693337e+01  3.9998853675688117e+01  3.9999957509220280e+01  4.0000047654913153e+01  3.9999679245781884e+01  3.9999994930306350e+01  3.9999908075950053e+01  4.0000176606095138e+01  3.9990215418362069e+01  3.9985361250067712e+01  4.0025560684031028e+01  4.0041768987734187e+01  3.9998911526258745e+01  3.9994444966099543e+01  3.9999987511629676e+01  4.0000183021153141e+01  4.0002291434986496e+01  4.0003066717252402e+01  4.0012569883169171e+01  4.0001618700015598e+01  4.0001663858234181e+01  3.9963700972356946e+01  4.0001449082573757e+01  4.0006002612599019e+01  4.0025447586192861e+01  4.0000016223161140e+01  4.0000222015645654e+01  4.0000655871179376e+01  4.0000040881492559e+01  4.0000082153150537e+01  4.0000738532330651e+01  4.0000211064487921e+01  4.0000418514705416e+01  4.0000771292692669e+01  3.9998909314273092e+01  3.9997902875862401e+01  3.9995668190586890e+01  3.9993295584653850e+01  4.0000843394814609e+01  4.0000655895246652e+01  3.9999133117094487e+01  3.9999899876788575e+01  3.9999322605764839e+01  4.0001322518494582e+01  4.0012071818566902e+01  3.9951324638045122e+01  3.9976537497011741e+01  4.0011195123689305e+01  4.0010280944504622e+01  4.0012224679889087e+01  4.0005787708324412e+01  4.0011990413138669e+01  4.0000243007299417e+01  4.0000325697754583e+01  4.0000442735459799e+01  4.0000241376133069e+01  3.9994878517342386e+01  3.9993629239552952e+01  4.0001646920529062e+01  3.9997875024536121e+01  3.9997762530559086e+01  4.0000224827868131e+01  4.0000853506418345e+01  3.9999519779566313e+01  3.9995828848731392e+01  3.9994374406966003e+01  3.9995388920050161e+01  3.9997633378384009e+01  3.9993962688776350e+01  3.9995002601183657e+01  3.9998560243206924e+01  3.9998651585469197e+01  3.9999497163209135e+01  3.9999538214107801e+01  4.0000152127574687e+01  3.9999938477997624e+01  4.0000137327621957e+01  4.0000143887906198e+01  3.9998759005616044e+01  3.9998697964103705e+01  4.0000060028428258e+01  4.0000156277052895e+01  4.0000273673282116e+01  3.9999689952589556e+01  4.0002012627442404e+01  4.0000779416447898e+01  4.0003087906999795e+01  4.0001246014805496e+01  4.0000082504835923e+01  4.0002636997904368e+01  4.0001703063637727e+01  4.0000949608125211e+01  4.0001107734154758e+01  4.0001092850881399e+01  4.0001063680573544e+01  3.9974952058155694e+01  4.0011643148927710e+01  3.9996503914872321e+01  3.9998803375151446e+01  4.0000783641557021e+01  4.0000110397687280e+01  3.9999905761595606e+01  3.9999660068520335e+01  3.9999714817818294e+01  3.9999497454727234e+01  4.0000044748135963e+01  3.9999867834622833e+01  4.0000017724109775e+01  3.9997472135700903e+01  3.9998583389966534e+01  3.9998312976585034e+01  3.9998040402807028e+01  4.0000083061339808e+01  3.9998267394915452e+01  3.9999996489432512e+01  4.0000059258972584e+01  3.9999465152297986e+01  3.9998795552783413e+01  3.9999957333825016e+01  3.9999906245434836e+01  4.0000032573440734e+01  4.0000497609965485e+01  4.0000208445019268e+01  4.0000453661232427e+01  4.0000013938364781e+01  4.0000423551777153e+01  4.0039653628997705e+01  4.0000750518063882e+01  4.0000611952270020e+01  4.0011032355697715e+01  3.9999859355235735e+01  3.9999858005891461e+01  3.9999689290626335e+01  3.9999957083931719e+01  4.0000026128587791e+01  4.0000008396982302e+01  3.9999966444327782e+01  3.9999967342188945e+01  4.0000017454563078e+01  4.0004078347360903e+01  3.9956521867546186e+01  3.9959777050842860e+01  3.9970037960578679e+01  4.0001565848145887e+01  3.9997308056309777e+01  3.9999309211935731e+01  3.9997777377666587e+01  3.9999219500804045e+01  4.0006844471882346e+01  4.0000858130351816e+01  4.0002571993806491e+01  4.0003377660217737e+01  4.0000018688647629e+01  4.0000713367022421e+01  4.0000558981307606e+01  3.9998718223926801e+01  3.9998306204455787e+01  4.0000930346493732e+01  3.9999477177844213e+01  3.9999316952959532e+01  3.9999966095374653e+01  4.0000171776406489e+01  3.9999686345423974e+01  3.9999570008661280e+01  3.9999593944901292e+01  3.9998967931960806e+01  3.9999957795811426e+01  4.0000059674389682e+01  4.0001004127902711e+01  3.9999635420487927e+01  3.9999449951979443e+01  4.0000032067352244e+01  3.9999866515196807e+01  3.9993606829263221e+01  4.0001116942810718e+01  4.0000323910436947e+01  4.0003398096585279e+01  3.9998722831577226e+01  4.0002283084268164e+01  4.0001491405050331e+01  4.0000279882154999e+01  3.9999394510165104e+01  3.9996661177217192e+01  4.0000242222676206e+01  4.0000610375935736e+01  3.9975713914461245e+01  3.9984364731372487e+01  3.9983903236737845e+01  4.0000795727153829e+01  3.9998840798667601e+01  4.0008498544657556e+01  3.9999702807071920e+01  3.9999888141587590e+01  3.9999869333156866e+01  3.9999942333998753e+01  3.9998155395536692e+01  3.9999469837348215e+01  4.0005928373649368e+01  4.0000264096322738e+01  3.9999605545273212e+01  4.0000392314822072e+01  4.0000193257896520e+01  4.0000804444837669e+01  4.0000361754412161e+01  4.0000202319441264e+01  4.0000766936388956e+01  4.0000740788903173e+01  3.9999660048663124e+01  3.9999395223766285e+01  3.9999867291164136e+01  3.9999865153622672e+01  4.0000015324523375e+01  4.0000260225393333e+01  3.9999963710420261e+01  3.9994904112820393e+01  4.0000093266910106e+01  4.0000074470476754e+01  3.9999233351790835e+01  3.9995630166816404e+01  4.0000194213585686e+01  3.9997799484443689e+01  3.9995733872830620e+01  3.9993067019629599e+01  3.9987685586860685e+01  4.0000156964026608e+01  4.0000508591275242e+01  4.0001134015654053e+01  3.9999623852508961e+01  3.9998735248686529e+01  4.0002759796430610e+01  4.0003479694152844e+01  4.0001682830255220e+01  4.0000873612661422e+01  4.0000077677490303e+01  4.0000665613187095e+01  3.9999862474791733e+01  4.0001566728172328e+01  3.9997943781215284e+01  4.0000038695668678e+01  4.0000124491611153e+01  3.9959763613845368e+01  3.9977048041801993e+01  3.9997123597135612e+01  4.0026542322342564e+01  3.9999245116356150e+01  3.9995265449434193e+01  4.0010233909315183e+01  4.0000797162757948e+01  3.9997177120858687e+01  3.9998052661353803e+01  3.9990494496558966e+01  3.9983586937255559e+01  3.9974606067375234e+01  4.0002250365545237e+01  4.0030781596053160e+01  4.0023636691545633e+01  3.9996956355964734e+01  3.9993575034311029e+01  3.9998575187090402e+01  3.9995943676027842e+01  4.0000416663111906e+01  4.0005223671735834e+01  3.9999789251735578e+01  4.0003855469819023e+01  4.0001457722574493e+01  3.9999827098600001e+01  4.0000524711719578e+01  4.0000118067658427e+01  3.9999480097401452e+01  3.9998779454630480e+01  4.0000019059403314e+01  4.0000166791868949e+01  4.0001657330029850e+01  4.0002980140936458e+01  4.0001310980396944e+01  4.0000750706711379e+01  4.0000023434499170e+01  3.9999646055360301e+01  3.9995941080238971e+01  3.9994507806864149e+01  3.9998254859995896e+01  3.9998358381592666e+01  3.9999251287547096e+01  4.0000894284541438e+01  3.9994658781696629e+01  3.9998276818048851e+01  3.9994261157285500e+01  3.9993471678379777e+01  3.9988255059445024e+01  3.9998449885785341e+01  3.9986035159853010e+01  4.0000582039029268e+01  3.9997245483556448e+01  3.9994764428452783e+01  4.0011350227850322e+01  4.0009129318945590e+01  4.0004486188403853e+01  3.9969642406952872e+01  4.0002456965509481e+01  4.0003929011170932e+01  3.9968537268546164e+01  3.9978940709293013e+01  3.9999916146739253e+01  4.0000520760449106e+01  3.9994708413138966e+01  3.9998213021892539e+01  4.0000808532846840e+01  4.0000046348394477e+01  3.9993876426980854e+01  3.9991988348002145e+01  4.0000051824817852e+01  3.9995958038405860e+01  3.9998419422142447e+01  3.9997995780366544e+01  3.9997917263126233e+01  3.9982341874618768e+01  3.9963992056162397e+01  4.0052742267220545e+01  4.0039195439024155e+01  3.9993446968862877e+01  3.9999685019908107e+01  3.9998345094987023e+01  4.0000102348414366e+01  4.0000138003566533e+01  4.0010658689213329e+01  3.9951584246611688e+01  3.9973560493136809e+01  4.0014516736696130e+01  4.0009913779947183e+01  4.0010916692244635e+01  4.0006665486261845e+01  4.0002034373895889e+01  3.9999874048648081e+01  3.9999943173059229e+01  3.9994928669182542e+01  4.0000163490769275e+01  4.0000334891882211e+01  4.0001077989563356e+01  3.9954162929189636e+01  4.0005987581418047e+01  4.0001719035469108e+01  4.0004297624615219e+01  4.0035655810645309e+01  3.9992142574310328e+01  3.9987215809829515e+01  3.9999982800344917e+01  4.0001324800003154e+01  4.0056825858068201e+01  4.0014294201272406e+01  3.9999833491231392e+01  4.0000354624801368e+01  4.0000032540838980e+01  4.0000117537182284e+01  4.0000179048157385e+01  4.0000764794883935e+01  4.0000350122441120e+01  4.0000251965554504e+01  4.0000218864200157e+01  3.9998067648470609e+01  4.0000067849384656e+01  3.9982072831022435e+01  4.0000751331060002e+01  3.9997999509211681e+01  4.0000221607508699e+01  3.9993293503880942e+01  3.9979474348275588e+01  3.9986266432348785e+01  3.9967592460497151e+01  4.0016075900238398e+01  4.0045873601501079e+01  4.0002335889851715e+01  3.9970875869255281e+01  3.9970745814289337e+01  3.9971263263443923e+01  4.0000499932242143e+01  3.9997332983973187e+01  3.9998950967871195e+01  3.9995876142015760e+01  3.9999667622792288e+01  4.0003268364365830e+01  4.0000988506125346e+01  4.0004642071131521e+01  4.0001577733348384e+01  4.0001178141127447e+01  4.0003799223074168e+01  4.0010180785810917e+01  4.0008803018621897e+01  4.0001267079661964e+01  4.0039605538750628e+01  4.0011022345192664e+01  3.9997319399790655e+01  4.0002490263392751e+01  4.0003334644996045e+01  3.9965925648101710e+01  4.0005311128258668e+01  3.9965724349086514e+01  3.9998898961958268e+01  3.9996670823338690e+01  3.9996523054112046e+01  4.0000244787094850e+01  4.0000678146702448e+01  4.0000072054153726e+01  4.0000760138832369e+01  4.0000082213682155e+01  4.0000435314358874e+01  4.0000292210370873e+01  4.0000409445039381e+01  4.0000110847382615e+01  4.0000199776221820e+01  4.0000212616891467e+01  4.0001885508832871e+01  4.0002245302045885e+01  4.0004612857649192e+01  4.0001838065802978e+01  3.9977100294170810e+01  4.0001120739222543e+01  3.9996639745123467e+01  4.0015930796577940e+01  3.9987922708169883e+01  4.0025304120823229e+01  3.9998454816441061e+01  4.0000163122310589e+01  4.0000123604780960e+01  3.9999943888071414e+01  4.0000400201784913e+01  3.9997330827129311e+01  4.0003406753107477e+01  3.9969051271307613e+01  4.0000691286118617e+01  3.9999269518536785e+01  3.9999878527855557e+01  4.0000003929182917e+01  3.9995722041844111e+01  3.9998265553115516e+01  3.9999910353142852e+01  4.0000300815680653e+01  4.0001012930162105e+01  4.0001000686254663e+01  4.0000096688033651e+01  4.0000037276722907e+01  4.0000166169646960e+01  4.0000276227694272e+01  4.0000625132265498e+01  4.0000771023328141e+01  4.0000912282893324e+01  4.0000073408309611e+01  3.9999399416006604e+01  3.9999833196513933e+01  4.0000314706741129e+01  4.0000397377816896e+01  4.0013426599318933e+01  4.0016778602436517e+01  3.9967692398151861e+01  3.9959913576360066e+01  4.0007474272955868e+01  4.0009436612131587e+01  4.0008859928828890e+01  3.9998863732608541e+01  4.0014790172633077e+01  4.0027291224052384e+01  4.0010993687145941e+01  4.0037623037633544e+01  3.9998284940720993e+01  4.0000765473079376e+01  4.0001716212978671e+01  4.0001543204166538e+01  4.0003436070452118e+01  3.9978197001522666e+01  4.0009561140185923e+01  3.9952484675272565e+01  4.0008165720950892e+01  4.0001942253763794e+01  4.0014871276213221e+01  4.0033322512020376e+01  4.0034793818647174e+01  3.9983650082360462e+01  3.9998495368395595e+01  4.0023691459196861e+01  3.9990140020788999e+01  3.9999369541795396e+01  4.0000117483182052e+01  4.0000184867099513e+01  4.0000265719521103e+01  4.0004302616892396e+01  4.0000069392823264e+01  4.0003351677742479e+01  4.0027198186131891e+01  4.0015799561507883e+01  4.0015759557499543e+01  3.9969813076167036e+01  4.0002398390846274e+01  4.0009637536603911e+01  3.9997014250536786e+01  4.0000500398406082e+01  3.9995681018763833e+01  3.9999482826484723e+01  4.0002093703444466e+01  4.0001911788082040e+01  4.0000278495984780e+01  3.9997689834342793e+01  4.0013338130011377e+01  3.9996725169626522e+01  4.0002451441735722e+01  4.0035993361902257e+01  4.0002484745306660e+01  4.0000437661241882e+01  3.9997541365081162e+01  3.9988476870838582e+01  4.0000348074008016e+01  4.0001089510522725e+01  3.9996439488284139e+01  4.0001880666826686e+01  3.9993782539398730e+01  3.9999949409086362e+01  3.9999876495216931e+01  4.0000029273111856e+01  4.0016246535277318e+01  4.0019178688700023e+01  3.9999859058728283e+01  3.9997518950338062e+01  3.9996704285585864e+01  4.0000722433440473e+01  3.9999438820745745e+01  3.9999714911322222e+01  4.0001519470861034e+01  3.9997859461026863e+01  3.9999982258702445e+01  4.0000446486258632e+01  4.0000465272399524e+01  3.9995352878843953e+01  4.0011753657101593e+01  4.0001190203112237e+01  3.9996358988047263e+01  3.9995680561372581e+01  4.0003860868959379e+01  4.0004263143386375e+01  3.9999956940822671e+01  4.0000143153822997e+01  4.0036856693790170e+01  3.9999199196200287e+01  3.9957292219272276e+01  3.9996698758733928e+01  3.9999689724024023e+01  4.0001152787683679e+01  3.9997106004596226e+01  3.9997769631059128e+01  3.9998458819558174e+01  3.9999479365423042e+01  3.9999249894998293e+01  3.9999541225434271e+01  4.0000047203737665e+01  4.0000012734607360e+01  4.0000035188149816e+01  4.0000098685063705e+01  4.0000274924529371e+01  4.0000201996703773e+01  3.9998487280019908e+01  4.0000277640926505e+01  4.0000172661727682e+01  3.9999656562582587e+01  4.0007795517678908e+01  4.0004126316393766e+01  4.0002062851099126e+01  4.0038905569328904e+01  4.0002308660615782e+01  3.9999961889529537e+01  4.0000013251538945e+01  3.9999993525517404e+01  3.9993857076856514e+01  4.0002208748429886e+01  3.9998214850148628e+01  4.0004349707371048e+01  3.9999625226751654e+01  4.0001987477290911e+01  3.9998865679249640e+01  4.0000003826678835e+01  3.9995270078053260e+01  3.9998069824697303e+01  4.0003282112918129e+01  3.9999358804794966e+01  4.0001955404056687e+01  4.0000110478399172e+01  3.9999969321561245e+01  3.9999424897251160e+01  4.0000012467350814e+01  3.9999921604344202e+01  3.9997669089424711e+01  3.9999414924042810e+01  3.9997578226149123e+01  3.9998666083554831e+01  4.0000290677348566e+01  3.9982828471337250e+01  3.9966704191016184e+01  4.0035905346809571e+01  3.9997884672017584e+01  3.9998710619496727e+01  3.9997434111081802e+01  3.9987896815533105e+01  4.0001015682260885e+01  3.9999512622215804e+01  4.0007590091346657e+01  4.0000119595415612e+01  4.0000124413102668e+01  3.9999906909623888e+01  3.9999972119301603e+01  4.0000176154842009e+01  3.9999478208920458e+01  3.9999478881302508e+01  3.9999336315103065e+01  3.9999914437673702e+01  3.9993153164313185e+01  4.0001234290224517e+01  4.0000111306106717e+01  3.9997200953062574e+01  4.0000973384023354e+01  3.9998970869307776e+01  3.9997648523670691e+01  3.9968216456157627e+01  3.9999601002653378e+01  4.0001417877059993e+01  3.9998754857749354e+01  3.9998464234245404e+01  4.0000133812625315e+01  3.9998898842475043e+01  3.9999319306119617e+01  3.9999557530415778e+01  4.0000192429687019e+01  3.9999347115835967e+01  4.0000012818243185e+01  4.0001128214960907e+01  3.9999340865551936e+01  4.0000016798390533e+01  3.9999196291033591e+01  4.0000017955083528e+01  4.0000062326772252e+01  3.9999946540628628e+01  4.0011141526651244e+01  4.0000329973017159e+01  4.0000393840718559e+01  4.000174721564310