<?xml version="1.0"?>
<VTKFile type="UnstructuredGrid"  version="0.1"  >
<UnstructuredGrid>
<Piece  NumberOfPoints="6012" NumberOfCells="27900">
<Points>
<DataArray  type="Float64"  NumberOfComponents="3"  format="ascii">48.948718 -34.051282 0  47.88530625 -34.0514245 0.0008359999999999479  47.884628 -34.58331925 0.53205275  48.41667925 -34.051268 0.53205275  47.8846405 -34.051254 1.0641055  47.3532675 -34.0514105 0.5328887499999999  47.35258925 -34.58330525 1.0641055  46.820538 -35.1153565 1.0641055  46.82121625 -34.58346175 0.5328887499999999  46.8218945 -34.051567 0.001671999999999896  48.41666675 -34.58333325 0  47.8846155 -35.1153845 0  47.353255 -34.58347575000001 0.0008359999999999479  47.35257675 -35.1153705 0.53205275  48.417345 -34.0514385 -0.53121675  47.35393325 -34.051581 -0.5303807500000001  47.88529375 -34.58348975 -0.53121675  47.885972 -34.051595 -1.0624335  46.820513 -36.179487 0  46.82120375 -35.115527 0.0008359999999999479  46.82119125 -35.64759225 -0.53121675  47.35256425 -35.64743575 0  46.821882 -34.58363224999999 -0.5303807500000001  47.35324249999999 -35.115541 -0.53121675  46.8218695 -35.1156975 -1.0624335  46.8205255 -35.64742175000001 0.53205275  46.820563 -34.051226 2.128211  46.82122875 -34.0513965 1.0649415  46.8205505 -34.58329125 1.59615825  47.35260175000001 -34.05124 1.59615825  46.823226 -34.051908 -2.124867  46.82256025 -34.0517375 -1.0615975  46.82254775 -34.58380275 -1.59365025  47.35392075 -34.58364625 -1.0624335  47.35459899999999 -34.05175149999999 -1.59365025  45.52281675 -33.3489825 2.12820075  45.5227695 -33.8810705 1.59616  46.05481725 -33.3490245 1.59615825  45.2890715 -32.646823 1.0641055  44.22502325 -33.178827 1.59614975  44.757071 -32.646781 1.596148  44.75702375 -33.178869 1.06410725  44.224976 -33.710915 1.064109  44.2250705 -32.646739 2.1281905  46.2885625 -34.051184 2.6602535  45.756562 -34.051142 3.192296  44.99081625 -33.3489405 2.66024325  44.990769 -33.8810285 2.1282025  45.75651474999999 -34.58323 2.66025525  45.22451425 -34.583188 3.19229775  44.69246649999999 -35.115234 3.1922995  44.45872125 -34.4130745 2.12820425  46.28851525 -34.583272 2.12821275  45.7564675 -35.115318 2.1282145  44.99072175 -34.4131165 1.59616175  45.224467 -35.115276 2.660257  44.692372 -36.17941 2.128218  44.458674 -34.9451625 1.5961635  44.69241925 -35.647322 2.66025875  45.22441975 -35.647364 2.12821625  44.692561 -34.051058 4.256381  44.45881575 -33.3488985 3.19228575  44.4587685 -33.8809865 2.660245  45.2245615 -34.0511 3.7243385  44.69251375 -34.583146 3.72434025  43.75758 -31.24242 0  43.99132525 -31.9445795 1.06409525  43.99127799999999 -32.4766675 0.5320545  44.52332575 -31.9446215 0.53205275  50 -14.142136 0  50.6666595 -14.62276575 0.772551  50.66372425 -14.74936875 0.0113415  50.6666595 -14.12287275 0.36856375  51.333319 -14.1036095 0.7371275  51.33038375 -15.2299985 0.7838925  51.333319 -14.6035025 1.14111475  51.33038375 -14.7301055 0.37990525  51.3274485 -15.3566015 0.022683  51.333319 -15.1033955 1.545102  50 -14.642029 0.40398725  50 -15.141922 0.8079745  50.6666595 -15.12265875 1.17653825  50.66372425 -15.24926175 0.41532875  50 -16.141708 1.615949  50.66372425 -16.24904775 1.22330325  50.6666595 -15.62255175 1.5805255  50.66372425 -15.74915475 0.819316  51.3274485 -15.8564945 0.42667025  51.33038375 -15.7298915 1.18787975  51.3274485 -16.3563875 0.8306575  50 -15.641815 1.21196175  52.666638 -14.065083 1.474255  52.66370275 -14.691579 1.11703275  51.9999785 -14.58423925 1.5096785  51.99704325 -14.71084225 0.7484690000000001  51.99704325 -15.21073525 1.15245625  51.994108 -15.33733825 0.39124675  52.6607675 -15.318075 0.7598105000000001  51.9999785 -14.08434625 1.10569125  52.654897 -16.571067 0.045366  52.65783225 -15.944571 0.40258825  51.994108 -15.83723125 0.795234  51.99117275 -15.96383425 0.0340245  51.99117275 -16.46372725 0.43801175  55.333333 -18.542862 -5.294445  54.5887855 -18.99428175 -3.95852375  55.333333 -18.78101875 -3.76184825  55.333333 -18.16295475 -4.470929999999999  55.333333 -17.7830475 -3.647415  54.5887855 -18.6143745 -3.13500875  55.333333 -18.4011115 -2.93833325  55.333333 -19.0191755 -2.2292515  54.5887855 -19.2324385 -2.425927  53.844238 -19.4457015 -2.6226025  54.5887855 -18.37621775 -4.6676055  54.5887855 -17.9963105 -3.8440905  53.844238 -18.2095735 -4.040766  53.844238 -18.8276375 -3.33168425  55.333333 -19.160926 -4.585363249999999  55.333333 -19.77899 -3.8762815  54.5887855 -19.61234575 -3.249442  55.333333 -19.39908275 -3.0527665  55.333333 -21.015118 -2.458118  54.5887855 -20.23040975 -2.54036025  55.333333 -20.01714675 -2.34368475  55.333333 -20.397054 -3.16719975  55.333333 -17.023233 -2.000385  54.5887855 -17.236496 -2.1970605  54.5887855 -18.23446725 -2.31149375  54.5887855 -17.61640325 -3.0205755  53.844238 -18.44773025 -2.50816925  53.844238 -17.82966625 -3.217251  53.844238 -17.449759 -2.393736  55.333333 -18.02120425 -2.11481825  55.333333 -17.40314025 -2.8239  52.355143 -17.876285 -2.787087  53.0996905 -17.663022 -2.5904115  53.0996905 -18.66099325 -2.70484475  53.0996905 -18.04292925 -3.4139265  50 -22.924552 -2.075448  49.75195475 -24.09572525 -3.1523205  49.481353 -23.4424835 -2.07616375  50.2702265 -24.10999175 -2.61978175  50.540453 -25.2954315 -3.1641155  49.23330775 -24.61365675 -3.15303625  50.02218125 -25.281165 -3.69665425  49.7515795 -24.62792325 -2.6204975  48.962706 -23.960415 -2.0768795  49.50390950000001 -25.2668985 -4.229193  50.27060175 -23.57779375 -3.15160475  50.5412035 -24.2310355 -4.2277615  50.02255650000001 -24.748967 -4.228477249999999  50.54082825 -24.7632335 -3.6959385  51.082407 -25.537519 -6.380075  50.29315825 -25.40220875 -5.304634  51.08203175 -26.069717 -5.848252  50.81143 -25.41647525 -4.77209525  50.81105475 -25.94867325 -4.24027225  51.0816565 -26.601915 -5.316428999999999  50.292783 -25.93440675 -4.772810999999999  50.81180525000001 -24.88427725 -5.30391825  51.080906 -27.666311 -4.252783  50.2920325 -26.99880275 -3.709165  50.29240775 -26.46660475 -4.240988  50.8106795 -26.48087125 -3.70844925  49.50353425 -25.7990965 -3.69737  50.021806 -25.813363 -3.16483125  49.503159 -26.3312945 -3.165547  51.08128125 -27.134113 -4.784606  47.925412 -24.996278 -2.078311  48.7142855 -25.66378625 -2.621929  48.71466075000001 -25.13158825 -3.153752  49.2329325 -25.14585475 -2.62121325  48.444059 -24.4783465 -2.07759525  42.569264 -36.182215 -4.248521  42.34339850000001 -33.88423924999999 -4.77236225  41.0741155 -33.692186 -4.2336985  42.341953 -34.94817275 -3.70987425  42.5707095 -35.11828149999999 -5.311009  41.07267 -34.7561195 -3.1712105  42.572155 -34.054348 -6.373497  39.576076 -33.330024 -2.0939  40.845359 -33.52207725 -2.63256375  42.114642 -33.7141305 -3.1712275  42.11608750000001 -32.650197 -4.233715500000001  41.66002 -31.246046 -2.093934  41.887331 -32.48008824999999 -2.63258075  40.618048 -32.288035 -2.093917  55.333333 -16.366842 1.526852  55.333333 -16.818246 1.95730875  54.6655915 -16.661382 1.920912  54.6655915 -16.519267 2.80336225  53.99785 -16.671692 4.0798725  54.6655915 -16.970671 3.233819  53.99785 -16.813807 3.19742225  53.99785 -16.955922 2.314972  54.6655915 -17.112786 2.35136875  55.333333 -17.26965 2.3877655  55.333333 -16.224727 2.40930225  54.6655915 -16.377152 3.6858125  55.333333 -16.082612 3.2917525  55.333333 -16.676131 2.839759  55.333333 -18.172458 3.248679  54.6655915 -18.015594 3.21228225  54.6655915 -17.56419 2.7818255  54.6655915 -17.422075 3.66427575  53.99785 -17.265211 3.627879  53.99785 -17.407326 2.74542875  53.99785 -17.85873 3.1758855  55.333333 -17.721054 2.81822225  55.333333 -17.127535 3.27021575  52.662367 -17.545002 3.103092  53.3301085 -17.701866 3.13948875  53.3301085 -17.250462 2.709032  53.3301085 -17.108347 3.59148225  53.99785 -15.6902935 3.0158375  54.6655915 -15.3957535 2.6217775  54.6655915 -15.88645275 3.153795  54.6655915 -14.76293925 2.97221025  55.333333 -15.59191275 2.759735  55.333333 -15.1012135 2.2277175  54.6655915 -16.02856775 2.27134475  53.99785 -16.18099275 3.547855  53.99785 -16.32310775 2.66540475  55.333333 -15.73402775 1.87728475  53.3301085 -16.61764775 3.05946475  50 -25 0  50.269268 -25.666644 1.064088  50.2692425 -26.19871025 0.53204725  50.801288 -25.6666635 0.53204875  51.602576 -26.333327 1.0640975  50.5385105 -26.86535425 1.59613525  51.070556 -26.3333075 1.59613675  51.0705305 -26.86537375 1.064096  50.538485 -27.3974205 1.0640945  50.538536 -26.333288 2.128176  53.205152 -27.666654 2.128195  52.1410865 -28.19868125 2.66023275  52.673132 -27.6666345 2.66023425  51.8718185 -27.53203725 1.59614475  50.80775300000001 -28.0640645 2.1281825  51.3397985 -27.53201775 2.128184  52.141112 -27.666615 3.1922735  51.6090665 -28.19866175 3.192272  51.077021 -28.7307085 3.1922705  52.6731065 -28.19870075 2.1281935  51.339773 -28.064084 1.59614325  52.141061 -28.7307475 2.128192  51.609041 -28.730728 2.66023125  51.871844 -26.999971 2.1281855  51.339824 -26.9999515 2.66022475  52.403864 -26.9999905 1.59614625  51.07697 -29.794841 2.128189  51.0769955 -29.26277475 2.66022975  51.6090155 -29.26279425 2.1281905  50.8077275 -28.59613075 1.59614175  51.077072 -27.666576 4.256352  51.0770465 -28.19864225 3.72431125  51.609092 -27.6665955 3.72431275  50.8077785 -27.53199825 2.66022325  50.807804 -26.999932 3.192264  49.74783475 -26.18807725 1.064088  49.47856675 -25.52143325 0  49.2264015 -26.7095105 1.064088  50.01707725 -27.3867875 1.59613525  49.74780925 -26.7201435 0.53204725  48.9571335 -26.0428665 0  49.49566950000001 -27.3761545 2.128176  50.01710275000001 -26.85472125 2.128176  50.28631975 -28.58549775 2.1281825  50.28629425 -29.117564 1.59614175  49.49564400000001 -27.90822075 1.59613525  50.01705175000001 -27.91885375 1.0640945  49.49561850000001 -28.440287 1.0640945  50.28634525 -28.0534315 2.66022325  50.28637075 -27.52136525 3.192264  47.914267 -27.085733 0  48.70496825000001 -27.23094375 1.064088  48.70494275 -27.76301 0.53204725  49.226376 -27.24157675 0.53204725  48.43570025 -26.56429975 0  50.26978575 -26.19870075
[...]
<PointData  Scalars="p_O2"> 
<DataArray  type="Float64"  Name="p_O2"  format="ascii">1.0000162546249209e+02  9.9995455411630672e+01  9.9998099219479172e+01  9.9991221848086397e+01  9.9988654264666962e+01  1.0001281016069116e+02  1.0000508078436361e+02  9.9990269315541951e+01  1.0000620713464647e+02  1.0001486491348962e+02  1.0001445554896087e+02  1.0000001383306353e+02  9.9987871934566357e+01  9.9988152390071889e+01  9.9999035886775289e+01  1.0000806602809739e+02  9.9999592089178222e+01  1.0000374920259078e+02  9.9998376411994698e+01  9.9990522745558067e+01  9.9999262159166662e+01  1.0001229661105165e+02  1.0000494454078556e+02  9.9993383214861623e+01  9.9992515791697116e+01  9.9992054371802197e+01  9.9988284894576978e+01  9.9977321058634786e+01  1.0000743803988232e+02  1.0000409476605746e+02  9.9955294915175529e+01  9.9970696289636379e+01  9.9999738267995937e+01  9.9999745973957047e+01  9.9994033341574507e+01  9.9970350642272493e+01  9.9961192734343840e+01  9.9991616735728869e+01  1.0001863964893153e+02  9.9976374010091263e+01  9.9971503284542479e+01  1.0000663055336723e+02  9.9949244998330954e+01  1.0005547566404084e+02  9.9984243190152057e+01  1.0000502476387055e+02  1.0001202837178450e+02  9.9978510201352947e+01  1.0000278623776632e+02  9.9999242345506190e+01  9.9999547659083277e+01  9.9980642962896027e+01  9.9982975773636369e+01  9.9988307678670282e+01  9.9959853460634264e+01  9.9985208534716719e+01  9.9979342889863261e+01  9.9957991549026474e+01  9.9984261839369537e+01  9.9985548540184311e+01  1.0003158144432044e+02  1.0003852041634002e+02  1.0002600566412538e+02  1.0000487639321965e+02  1.0000971837799355e+02  9.9828366469747493e+01  1.0010877529493438e+02  9.9861706416024433e+01  9.9882934494191247e+01  1.0241116041701760e+02  1.0114722098988598e+02  1.0027504587178632e+02  1.0158643349994719e+02  1.0274778572838296e+02  1.0075834761667778e+02  1.0221315125374886e+02  1.0239241806121032e+02  1.0105775023416456e+02  1.0118617749627062e+02  1.0071972805614394e+02  1.0030159759911528e+02  1.0042152886948128e+02  1.0093379791766731e+02  1.0021095922267480e+02  1.0059183420771771e+02  1.0053639425437659e+02  1.0079938851928274e+02  1.0107389851211298e+02  1.0090884146801110e+02  1.0099500374906096e+02  1.0019739310239767e+02  1.0414832403917073e+02  1.0224400439281715e+02  1.0065719820843712e+02  1.0113102499011232e+02  1.0141016380457387e+02  1.0096909013494765e+02  1.0098316628356525e+02  1.0173317422468268e+02  1.0098956708773923e+02  1.0093043686003189e+02  1.0082922244972514e+02  1.0094334884096642e+02  1.0092544007722336e+02  9.9208273330385310e+01  1.0098253706748932e+02  1.0031201262136460e+02  9.9694714509513744e+01  1.0005596346019318e+02  1.0041146342780790e+02  9.9973708621062002e+01  1.0012752060868536e+02  1.0023935027011535e+02  1.0009442458294659e+02  1.0068388304478358e+02  1.0047554129240508e+02  1.0067914732857720e+02  1.0094823888674287e+02  1.0037991077250233e+02  1.0034552002560270e+02  1.0098175076404083e+02  1.0013289289411362e+02  9.9896406620121041e+01  1.0058617528081228e+02  9.9782244394868343e+01  1.0032090036656750e+02  1.0040836952605655e+02  1.0054312678414929e+02  1.0072987444871943e+02  1.0064862614559514e+02  1.0069537298373400e+02  1.0044637612867531e+02  1.0093642730101062e+02  1.0017626425986080e+02  1.0001717878491293e+02  1.0203084307950938e+02  1.0152628171243923e+02  1.0234543306522536e+02  1.0241630679377664e+02  1.0862957394180754e+02  9.4469698967061774e+01  1.0623456722737714e+02  9.1181164688823301e+01  1.0224889216570236e+02  9.7910726275154857e+01  1.0125029311352408e+02  1.0003459348014985e+02  9.8254622596016830e+01  1.0032164573133031e+02  9.4621798726844162e+01  1.0241422512704821e+02  1.0136464241521556e+02  1.0203687914749878e+02  1.0009129509821749e+02  9.9587897912351082e+01  1.0022381998592823e+02  9.9216557226028669e+01  1.0016527113985870e+02  9.9990791721867609e+01  1.0000726108075665e+02  9.9792070673203639e+01  9.9979915453326640e+01  1.0010652050142421e+02  9.9502508641133502e+01  9.9535949736452864e+01  1.0018489666895746e+02  1.0077673190243493e+02  9.9823240326135632e+01  1.0007031072102934e+02  1.0024995827613745e+02  9.9195908288807971e+01  9.8730894519709636e+01  9.8490214725336088e+01  9.9828739736579891e+01  1.0004293752367910e+02  1.0003987603183167e+02  1.0007222806629865e+02  1.0015856532018155e+02  9.9979981512622714e+01  1.0020324896841295e+02  1.0003592823272196e+02  9.9891665132236653e+01  1.0005719951644851e+02  1.0011398489261947e+02  1.0005240127967588e+02  9.9986423792619235e+01  1.0004837370366100e+02  9.9991258840358853e+01  1.0020802441459936e+02  1.0022692608395039e+02  1.0057921060957815e+02  1.0039237952517169e+02  1.0047723325267239e+02  1.0039219145577339e+02  1.0066574506469610e+02  1.0071325550849777e+02  1.0035679927061112e+02  1.0014070587564015e+02  1.0018283843063443e+02  1.0038818313378654e+02  1.0027043434909505e+02  1.0022815256093830e+02  1.0010664191172496e+02  1.0029099824786449e+02  1.0043695953339609e+02  1.0037613235516375e+02  1.0042562265833271e+02  1.0071845904841848e+02  1.0056218927167937e+02  1.0013528391337174e+02  1.0012587516753526e+02  1.0125717531893015e+02  1.0102135490374391e+02  1.0104433760758920e+02  1.0112885239051128e+02  1.0073601051559665e+02  1.0036599246381843e+02  1.0056411960352675e+02  9.9424982998287490e+01  1.0046306055281495e+02  9.9959678381640884e+01  1.0054220974583365e+02  1.0055624557422072e+02  1.0073790518958538e+02  1.0004012726770851e+02  1.0108449658587384e+02  1.0254907054358200e+02  1.0109807568732938e+02  9.6346559662085909e+01  9.7312074787451849e+01  1.0013285632773930e+02  1.0033572480140701e+02  1.0039691307294248e+02  9.9709639186923937e+01  1.0007062765974422e+02  1.0106075695297783e+02  9.9997067633902716e+01  9.9913717235511314e+01  1.0005423765498347e+02  9.9821290983069858e+01  1.0030604384862579e+02  1.0019114698233371e+02  9.9957545529392718e+01  9.9913906496932626e+01  1.0002294766455320e+02  9.9968253958272513e+01  9.9914955449819288e+01  9.9628180963356627e+01  9.9950477532854066e+01  9.9971526707579983e+01  1.0026070181268462e+02  9.9548690380744915e+01  9.9951754978408758e+01  1.0008021200338494e+02  9.9972198162193379e+01  9.9604453763583280e+01  1.0004616433633555e+02  1.0016065359734321e+02  9.9987609945081658e+01  9.9698139686823296e+01  1.0002922172425492e+02  9.7711554305716732e+01  9.6682893490658955e+01  1.0013819287562291e+02  1.0027695398747466e+02  1.0016196668604576e+02  1.0138824512525063e+02  1.0017071791196615e+02  1.0068552715887330e+02  9.9793386664655173e+01  1.0008557792125130e+02  1.0014520596721341e+02  1.0004954960846696e+02  9.9904424345167683e+01  9.9991022000133157e+01  9.9739341726177187e+01  1.0040957874045199e+02  9.9475896790130989e+01  9.9953289015456122e+01  9.9430472210582209e+01  9.9639096074870977e+01  9.5304992310853379e+01  9.9905074535845827e+01  1.0000532803191069e+02  1.0025082082411356e+02  9.9858518492538096e+01  1.0003895542147131e+02  1.0030873117372288e+02  1.0002744249756296e+02  1.0004576937902814e+02  1.0007123234019802e+02  9.9980201031077613e+01  9.9909831079817707e+01  9.9774212882254602e+01  9.8960191037074765e+01  9.9913653361486027e+01  9.9868874419549059e+01  9.9830930246839927e+01  9.9871765989731898e+01  1.0010586771578279e+02  9.9607378022988641e+01  1.0022530753574016e+02  1.0074716886114375e+02  1.0068517413380195e+02  1.0022929418245317e+02  1.0012110383930032e+02  1.0058936301003968e+02  1.0064399764405670e+02  1.0112266474123176e+02  1.0096162747677283e+02  1.0104557084806116e+02  1.0035639971782288e+02  1.0032148281486896e+02  1.0070520114328095e+02  1.0033650967209877e+02  1.0052730578913625e+02  1.0024902609052407e+02  1.0091344208138673e+02  1.0057477146182853e+02  1.0024931687375386e+02  1.0027837210083705e+02  1.0022210386436122e+02  1.0060933471283458e+02  1.0032847306074707e+02  1.0055282602645293e+02  1.0025243720559730e+02  1.0024759458052014e+02  1.0036326418130112e+02  1.0084487400879330e+02  1.0094254401346318e+02  1.0105660576033462e+02  9.9452572330169431e+01  1.0038923937738095e+02  1.0006269780645295e+02  1.0016008931518316e+02  1.0055189298785488e+02  1.0007644806810411e+02  1.0012594985805693e+02  1.0024463954207397e+02  1.0017842752436972e+02  1.0010287375159653e+02  1.0169081081104342e+02  1.0146890377818768e+02  1.0133133798450606e+02  1.0173270673423998e+02  1.0242121856345281e+02  1.0078364560220395e+02  1.0113216358748178e+02  9.8222593289237750e+01  9.9833725077323109e+01  9.9878040040693875e+01  1.0462275588477722e+02  1.0210200852917775e+02  1.0237228837593774e+02  1.0156492845204329e+02  1.0085006420044007e+02  1.0125181832185199e+02  1.0101235298159303e+02  1.0196433899275827e+02  1.0098382303462692e+02  1.0206549841544035e+02  9.9944502482163813e+01  1.0002059433131843e+02  1.0001321302893341e+02  9.9990258498730654e+01  9.9954197426975057e+01  1.0001337326794177e+02  1.0001782249514019e+02  9.9999259357464950e+01  9.9977854354604119e+01  1.0000318049506662e+02  9.9963275472058655e+01  1.0000625845954951e+02  9.9976729249092102e+01  1.0000663503166847e+02  1.0002213219178783e+02  1.0008990762650951e+02  1.0004809046494071e+02  9.9908495068401194e+01  9.9947802887481927e+01  1.0001237694107311e+02  1.0009332668665495e+02  1.0007239115460104e+02  9.9911534476128409e+01  1.0003008589508723e+02  1.0004784169386205e+02  1.0006120604545214e+02  1.0003905243865769e+02  9.9657927370351132e+01  9.9827385133005322e+01  1.0017276759849582e+02  1.0015726721066645e+02  9.9953686398653559e+01  1.0009142900112928e+02  1.0008383848795238e+02  9.9900879307098080e+01  9.9826314240998627e+01  1.0010172142313016e+02  1.0021314219020441e+02  9.9645851547827831e+01  9.9992947072979419e+01  1.0001161267489393e+02  9.9990648003411337e+01  1.0002966723664997e+02  1.0000562403062405e+02  1.0005349945624364e+02  1.0001658956957343e+02  1.0003335959139989e+02  1.0000767107987429e+02  9.9996897872226938e+01  1.0005316466195151e+02  1.0000885536531655e+02  1.0007947950765359e+02  1.0001095221098734e+02  1.0003095278015040e+02  1.0003084250660879e+02  1.0002610396518438e+02  1.0004112471512896e+02  1.0004520907937381e+02  1.0003212016672587e+02  1.0005016614964886e+02  1.0006026270093378e+02  1.0001844529248761e+02  1.0001942651709936e+02  1.0003693887463274e+02  9.9990278478396831e+01  1.0001728520161483e+02  9.9995638797216785e+01  1.0000774945666073e+02  1.0002014288471402e+02  9.9999382490094206e+01  1.0003852042224317e+02  1.0002371079252471e+02  1.0005077962962953e+02  1.0000820545920605e+02  1.0001417840826615e+02  9.9956220112443134e+01  1.0007805549785579e+02  1.0004389358515006e+02  1.0004059225106528e+02  1.0004299982472902e+02  1.0004473852712408e+02  1.0000981204277672e+02  1.0001079619995684e+02  1.0001282244523190e+02  1.0008065919417629e+02  1.0007943420668622e+02  9.9970447780248747e+01  1.0001322288562652e+02  9.9962868012683330e+01  9.9985924387815913e+01  1.0007744469786500e+02  1.0001556887432849e+02  1.0004912546187478e+02  1.0000217640156956e+02  9.9969948729932241e+01  1.0000261291744695e+02  9.9732334352438841e+01  9.9858393765247996e+01  1.0009027240579765e+02  1.0012012470061399e+02  1.0008704061894608e+02  9.9955003661484113e+01  9.9781528571205669e+01  1.0020611046884879e+02  1.0032333662941991e+02  1.0046874627985657e+02  1.0002927874751863e+02  9.9811228887350708e+01  9.9965034382246841e+01  9.9969000922183540e+01  9.9916044088008348e+01  9.9489654881615124e+01  9.9841464285835443e+01  1.0082447473341696e+02  1.0005798678758470e+02  9.9856792907672997e+01  1.0003663524127366e+02  1.0008616757832330e+02  1.0006422352455685e+02  1.0000959982416492e+02  9.9768928849509351e+01  1.0026040370811081e+02  9.9384765571953565e+01  1.0016278377198684e+02  9.9737833725695452e+01  1.0008545312561182e+02  9.9784113014804547e+01  1.0054347988909090e+02  9.9992502626069566e+01  1.0001627555021763e+02  1.0001534222497750e+02  9.9976556462667702e+01  1.0001402782757552e+02  9.9940612707199364e+01  9.9961542406206206e+01  1.0001494773541246e+02  1.0005086620878593e+02  9.9950397237443141e+01  9.9780737766403519e+01  1.0003966207629524e+02  9.9619521553004844e+01  1.0002328012429258e+02  9.9621599616615654e+01  9.8846482753897817e+01  1.0066441494151861e+02  9.9690599634023627e+01  9.9901287176616009e+01  1.0007167548119028e+02  9.9969452004531519e+01  9.9973822221455194e+01  1.0009507801348924e+02  1.0003338154971878e+02  9.9975116704571363e+01  1.0008691290880145e+02  1.0022553231157900e+02  1.0006107249321408e+02  1.0010643100479997e+02  1.0010223432315233e+02  1.0001836198358636e+02  9.9981793949383800e+01  9.9926312817489176e+01  9.9997977628169480e+01  1.0000509586708273e+02  1.0004336760912061e+02  9.9987695635899328e+01  1.0006746789103289e+02  1.0005484715421639e+02  1.0002313999837995e+02  9.9986289510146662e+01  1.0002944531649614e+02  1.0004538327643944e+02  1.0004352715460797e+02  1.0005924652812722e+02  1.0007107608169956e+02  1.0004821414371926e+02  1.0003134535728060e+02  1.0000156344571405e+02  1.0000559261290495e+02  1.0002887089375911e+02  1.0003488316217341e+02  1.0001002157416090e+02  1.0002044271474337e+02  1.0005333828868775e+02  1.0000598278579172e+02  1.0002624308217447e+02  1.0002931773075655e+02  1.0004742708639603e+02  1.0001852343910969e+02  1.0004279778357849e+02  1.0001081819420186e+02  1.0000897914308801e+02  9.9999622968655117e+01  1.0002588744335580e+02  1.0002539018062426e+02  1.0001326696064073e+02  1.0000926297911853e+02  1.0000721073509918e+02  1.0004355379804306e+02  1.0010423608732280e+02  9.9608583333435206e+01  1.0040506831727731e+02  1.0051289184931274e+02  1.0018995035449873e+02  1.0056701126082363e+02  1.0006312647671398e+02  1.0008445286349655e+02  1.0009361525408832e+02  1.0013668349841417e+02  1.0041548927555799e+02  1.0138644773086506e+02  1.0101806618929230e+02  1.0183298622259871e+02  9.8767106054745071e+01  9.7125686676395105e+01  1.0063882795847209e+02  1.0077951984831489e+02  1.0029373623159142e+02  1.0324433089278025e+02  1.0270260394677889e+02  1.0108887102143089e+02  1.0048546638791571e+02  1.0250420011700361e+02  9.9521834600776614e+01  1.0026995669810078e+02  9.9627337307877170e+01  1.0029626893863798e+02  1.0076723873026690e+02  1.0192374153353171e+02  9.9986800369709783e+01  9.9980008129172262e+01  1.0000219273854468e+02  9.9978754135683829e+01  9.9983298346515824e+01  9.9960187425423271e+01  1.0001459118557977e+02  1.0001836763532619e+02  1.0001362663474939e+02  9.9996119453444550e+01  9.9990112854490008e+01  1.0001395090666256e+02  1.0001996084155097e+02  1.0000993270402772e+02  1.0001049194782429e+02  1.0003922691463103e+02  1.0003124585075068e+02  1.0001946444009802e+02  9.9988365564037636e+01  1.0001643602793622e+02  9.9975818963151909e+01  1.0002000610689389e+02  1.0002313636603124e+02  1.0003210451228757e+02  1.0001839656414725e+02  9.9994688935795480e+01  1.0002972104197505e+02  1.0000008330416583e+02  9.9983636223534177e+01  9.9961852444216120e+01  9.9998829296885702e+01  9.9958907673863720e+01  9.9978283335281290e+01  9.9957551467137336e+01  1.0000875072474281e+02  1.0002069066372925e+02  1.0001161185631824e+02  9.9985095817959490e+01  9.9984285376482873e+01  1.0001186671176808e+02  1.0000831594832773e+02  1.0000034922133945e+02  1.0000158316343294e+02  1.0002653157483209e+02  1.0003618470466272e+02  1.0001371689904374e+02  1.0002719323292941e+02  9.9976850182499120e+01  1.0001125559853041e+02  1.0002846525890617e+02  9.9973964438137855e+01  1.0003137804667364e+02  1.0000023204104241e+02  1.0000270244556158e+02  9.9976447671536690e+01  9.9993390157180869e+01  9.9978706894086699e+01  9.9998415238358490e+01  9.9996372240873200e+01  1.0001546091784907e+02  1.0000034464006676e+02  1.0000765505071483e+02  1.0000337817895294e+02  1.0000818736433801e+02  1.0000984245025070e+02  1.0000925263872089e+02  9.9996113920529353e+01  1.0000444067763844e+02  1.0000251850476701e+02  1.0001238702685680e+02  9.9986868520664245e+01  1.0000799476957968e+02  1.0001456888541108e+02  1.0002996030258613e+02  1.0000998399672935e+02  9.9984875707259889e+01  1.0002763020444898e+02  9.9989352375760063e+01  9.9993292125753285e+01  9.9991367948376805e+01  1.0000410153743906e+02  1.0001255507911179e+02  1.0000986260059381e+02  1.0002107541303273e+02  1.0001424979188131e+02  1.0005896126053045e+02  9.9925070398852384e+01  1.0024110224105412e+02  9.9895933709639237e+01  1.0003067325593913e+02  1.0011772585629571e+02  9.9926930899385468e+01  1.0015387181855536e+02  9.9953685869058759e+01  9.9880474680513672e+01  9.9954391557391830e+01  1.0020538896561943e+02  1.0071797970754808e+02  1.0105754325637832e+02  9.9900445692034651e+01  1.0006883324437361e+02  9.9961646874944734e+01  9.9978924667574418e+01  1.0016433662796808e+02  9.9733932945631253e+01  1.0026270516613786e+02  9.9960925817056633e+01  9.9634034493949244e+01  1.0006058388026284e+02  1.0000718621624580e+02  1.0013998390004666e+02  9.9966512649204830e+01  1.0002160146679189e+02  9.9888960576180423e+01  1.0024008094095866e+02  9.6971578051047601e+01  1.0002066257749331e+02  1.0040763909711956e+02  9.9681488879346873e+01  9.9505680715830863e+01  9.9544800909900786e+01  9.9876606752475752e+01  1.0018394575504058e+02  9.9656556772281917e+01  9.9975008515040216e+01  9.9584362775981290e+01  9.9681454294585279e+01  9.9044826041540375e+01  1.0009904632013993e+02  9.9836759496205460e+01  1.0012933964338630e+02  1.0049610346644079e+02  1.0007142831676457e+02  1.0015233189441979e+02  9.9968699877975283e+01  1.0015923789767085e+02  9.9968104955108529e+01  9.9913195536036611e+01  1.0008250624893415e+02  9.9729587887031542e+01  9.9931290308300248e+01  1.0009185411672195e+02  1.0015208035626925e+02  1.0023019247936229e+02  1.0033222233854421e+02  1.0005248966871990e+02  1.0037028726842267e+02  1.0006531372538304e+02  1.0009002332197869e+02  1.0018120972987488e+02  9.9985309393858500e+01  9.9480953275669364e+01  9.9480167411207887e+01  1.0001780920439982e+02  1.0018220483025391e+02  1.0005983543865517e+02  1.0013003088167281e+02  1.0021882745630863e+02  1.0008366705489009e+02  9.9952072823491520e+01  9.9956145872295636e+01  9.9594276409745845e+01  1.0003826053332813e+02  1.0003215886227805e+02  1.0005766377006223e+02  1.0003519949023713e+02  1.0010449170071615e+02  1.0008734089131251e+02  1.0004335405842819e+02  1.0003443911665215e+02  9.9231635167642878e+01  1.0073698505329229e+02  1.0018621817305220e+02  9.8868020919054104e+01  9.9754019966265872e+01  9.9209133036511730e+01  9.9848445718935238e+01  9.9939349703061836e+01  1.0024387926720675e+02  9.8930902448642669e+01  1.1477560631606973e+02  1.1600290087467347e+02  1.0788660015421597e+02  1.0857416538072249e+02  1.0669793528212442e+02  1.0556128043507435e+02  1.0612221098809992e+02  1.0327025808886926e+02  1.0268995537467059e+02  1.0227007347313003e+02  1.0053879698619573e+02  9.9732242120745781e+01  1.0038628352543977e+02  9.8479958493577868e+01  9.8165773888224265e+01  9.9977751687977644e+01  1.0031917627848098e+02  1.0064849833188825e+02  9.8303370833392350e+01  1.0013096861754862e+02  9.9475700163103753e+01  1.0003735915328451e+02  1.0041072334342846e+02  9.9946559331600682e+01  9.9533683058641003e+01  9.8738347812586753e+01  1.0001310388861299e+02  9.7773717985855598e+01  9.9644783174020205e+01  9.7618123243948105e+01  1.0131562369251033e+02  1.0080355669408705e+02  1.0124399578018799e+02  1.0116153169033213e+02  1.0143598998695194e+02  1.0158668142101828e+02  1.0146502321937768e+02  1.0082601385123701e+02  1.0094213406073924e+02  1.0183865604099651e+02  1.0143720437107854e+02  1.0084973467167690e+02  1.0088528847116486e+02  1.0145987653264477e+02  1.0142667330520618e+02  1.0134249592832064e+02  1.0125450009845922e+02  1.0106369910423250e+02  1.0130924297196911e+02  1.0151135008047262e+02  1.0156569841282577e+02  1.0094452708741122e+02  1.0190971741696144e+02  1.0216284024194766e+02  1.0169990077973668e+02  9.9995270489892505e+01  1.0000410011506877e+02  1.0001490836359930e+02  1.0000985092958669e+02  9.9970412433365851e+01  1.0001061039727487e