<?xml version="1.0"?>
<VTKFile type="UnstructuredGrid"  version="0.1"  >
<UnstructuredGrid>
<Piece  NumberOfPoints="5935" NumberOfCells="26642">
<Points>
<DataArray  type="Float64"  NumberOfComponents="3"  format="ascii">-50 -10.414456 14.585544  -50.6665165 -9.735582749999999 13.9048575  -51.33333325 -10.71845175 13.96425975  -50.66561325 -10.310429 13.439571  -51.3312265 -10.206402 12.293598  -51.99984975 -10.0395785 13.28357325  -51.33212975 -9.63155575 12.7588845  -51.9989465 -10.61442475 12.81828675  -52.66666650000001 -11.0224475 13.3429755  -51.333033 -9.0567095 13.224171  -52.666066 -7.698963 11.862798  -53.33288275 -8.681832 11.92220025  -52.66636625 -9.360705250000001 12.60288675  -52.66516275 -8.273809249999999 11.3975115  -52.6642595 -8.8486555 10.932225  -53.3319795 -9.25667825 11.45691375  -52.665463 -9.935551499999999 12.13760025  -53.33318300000001 -10.34357425 12.662289  -53.99969950000001 -9.664701000000001 11.9816025  -51.99864625 -8.9526825 12.078198  -51.997743 -9.52752875 11.6129115  -51.9995495 -8.37783625 12.5434845  -51.33333325 -11.00314975 14.663517  -50.80143675 -11.5351475 14.66341575  -51.6028735 -12.655839 14.7412875  -52.13477 -12.12384125 14.74138875  -52.13477 -11.83914325 14.0421315  -52.66666650000001 -11.3071455 14.04223275  -52.66666650000001 -11.5918435 14.74149  -50 -9.576753499999999 14.00209075  -50 -10.17434625 13.5685775  -50 -9.934236500000001 12.551611  -50 -9.33664375 12.98512425  -50.6665165 -9.495473 12.887891  -50.6665165 -8.89788025 13.32140425  -50 -8.739051 13.4186375  -50 -7.063646 12.251731  -50.6665165 -7.22247525 12.15449775  -50.6665165 -8.060177750000001 12.737951  -50.6665165 -7.820068 11.7209845  -51.333033 -8.57649 11.190238  -51.333033 -7.97889725 11.62375125  -51.333033 -8.81659975 12.2072045  -51.333033 -8.219007000000001 12.64071775  -51.333033 -7.381304500000001 12.0572645  -50 -7.66123875 11.81821775  -50.6665165 -8.6577705 12.30443775  -50.6665165 -8.41766075 11.28747125  -50 -8.258831499999999 11.3847045  -50 -8.498941250000001 12.401671  -50 -9.096534 11.96815775  -50 -7.9013485 12.83518425  -50 -9.454017 10.517678  -50.6665165 -9.25536325 11.8709245  -50 -8.85642425 10.95119125  -50.6665165 -9.0152535 10.853958  -50 -9.694126750000001 11.5346445  -51.9995495 -7.540133750000001 11.96003125  -51.9995495 -8.137726499999999 11.526518  -50.66561325 -10.07031925 12.4226045  -50.66561325 -9.8302095 11.405638  -51.33212975 -9.391446 11.741918  -51.99864625 -8.71257275 11.0612315  -55.333333 -8.31115 11.442237  -54.66651625 -8.15810325 11.54737725  -54.66651625 -8.987925499999999 11.71191975  -54.66561300000001 -8.7329495 11.08209075  -53.997893 -9.154748999999999 10.7219445  -53.99969950000001 -8.834878750000001 11.81706  -53.99879625000001 -8.579902749999999 11.187231  -53.99879625000001 -9.409725 11.3517735  -53.99969950000001 -8.0050565 11.6525175  -53.3319795 -8.426855999999999 11.29237125  -53.33107625 -9.001702249999999 10.82708475  -53.33288275 -7.852009750000001 11.75765775  -53.205797 -12.768859 17.025344  -51.872489 -12.1801105 16.94740075  -52.40434775 -12.18025825 16.415394  -52.40434775 -11.66218775 16.9334645  -51.60289849999999 -10.5555165 16.841585  -51.07103975 -11.59150975 16.33745075  -51.07103975 -11.07343925 16.85552125  -51.60289849999999 -11.073587 16.3235145  -51.60289849999999 -11.5916575 15.805444  -50.539181 -11.591362 16.8694575  -52.67393824999999 -12.76871125 17.55735075  -52.14207949999999 -12.7685635 18.0893575  -51.34063025 -12.17996275 17.4794075  -51.87248899999999 -11.66204 17.46547125  -51.078362 -12.768268 19.153371  -50.8087715 -12.179815 18.01141425  -50.8087715 -11.6617445 18.52948475  -51.34063025 -11.66189225 17.997478  -51.07103975 -10.55536875 17.37359175  -50.539181 -10.555221 17.9055985  -50.539181 -11.0732915 17.387528  -51.61022075 -12.76841575 18.62136425  -50 -8.342174 16.657826  -50 -8.8602445 16.1397555  -50.2695905 -9.966768 16.76364175  -50.80144925 -9.44884525 16.7497055  -50.2695905 -10.4848385 16.24557125  -50.80144925 -9.96691575 16.231635  -50 -9.378315000000001 15.621685  -50.2695905 -9.4486975 17.28171225  -50 -9.896385500000001 15.1036145  -50.2695905 -11.002909 15.72750075  -50.80144925 -10.48498625 15.7135645  -50.80144925 -11.00305675 15.195494  -43.13899499999999 -14.784681 21.076324  -43.385859 -15.37129125 22.24284975  -43.91764675 -15.3717125 21.71064075  -43.9178565 -14.839124 22.2430195  -44.6962985 -15.958744 22.3449575  -42.60720724999999 -14.78425975 21.608533  -42.85386149999999 -15.9034585 22.24268  -42.0754195 -14.7838385 22.140742  -50.6665165 -8.18137125 15.459069  -51.33333325 -8.61821625 16.030604  -50.6665165 -8.69944175 14.9409985  -51.33333325 -9.13628675 15.5125335  -52.66666650000001 -8.894258499999999 15.403382  -51.99984975 -8.457413499999999 14.831847  -51.333033 -8.0205685 14.260312  -51.33333325 -10.17242775 14.4763925  -51.33333325 -9.65435725 14.994463  -51.99984975 -9.4935545 13.795706  -51.99984975 -8.975484 14.3137765  -52.66666650000001 -9.412329 14.8853115  -52.66666650000001 -9.9303995 14.367241  -50.6665165 -9.217512249999999 14.422928  -51.333033 -8.538639 13.7422415  -55.333333 -9.446343000000001 14.148938  -54.66651625 -9.009498000000001 13.577403  -53.99999975 -9.688371249999999 14.2580895  -53.99999975 -9.170300749999999 14.77616  -53.33318300000001 -8.733455750000001 14.204625  -53.33318300000001 -9.251526250000001 13.6865545  -53.99969950000001 -8.572653000000001 13.005868  -53.33288275 -8.135808000000001 12.434333  -52.66636625 -8.81468125 13.1150195  -52.66636625 -8.296610749999999 13.63309  -51.9995495 -7.859765749999999 13.061555  -46.82368 -14.895272 21.281047  -46.04095625000001 -13.784126 21.17491675  -46.5674135 -13.7813655 20.65122  -46.567498 -13.2489925 21.18350875  -46.31114700000001 -12.667459 20.021393  -45.78468975000001 -12.6702195 20.54508975  -46.31123150000001 -12.135086 20.55368175  -45.25823250000001 -12.67298 21.0687865  -46.8237645 -14.362899 21.81333575  -46.823849 -13.830526 22.3456245  -45.798614 -10.439646 18.761739  -45.52842325 -11.556313 19.91526275  -45.27215675 -10.4424065 19.28543575  -46.054965 -11.0211795 19.92385475  -44.7456995 -10.445167 19.8091325  -46.0548805 -11.5535525 19.391566  -46.31131600000001 -11.602713 21.0859705  -49.754252 -12.1821125 19.063636  -49.75419725 -12.7143515 18.531452  -50.286069 -12.18234875 18.531583  -49.493776 -11.5964295 17.909795  -48.43008725 -12.128196 18.441717  -48.961959 -11.59619325 18.441848  -48.96190425 -12.12843225 17.909664  -48.4300325 -12.660435 17.909533  -48.430142 -11.595957 18.973901  -50.01467325 -13.3000345 19.685293  -50.54654499999999 -12.76803175 19.685424  -50.014728 -12.7677955 20.217477  -48.69056325 -12.713879 19.595558  -49.222435 -12.18187625 19.595689  -49.48285625 -13.29979825 20.217346  -48.9509845 -13.831801 20.217215  -50.54649025 -13.30027075 19.15324  -50.0146185 -13.8322735 19.153109  -49.22238025 -12.71411525 19.063505  -49.2223255 -13.24635425 18.531321  -49.4828015 -13.83203725 19.685162  -48.950875 -14.896279 19.152847  -48.69050850000001 -13.246118 19.063374  -48.69045375 -13.778357 18.53119  -49.48274675 -14.36427625 19.152978  -48.95092975 -14.36404 19.685031  -48.951094 -12.767323 21.281583  -48.690618 -12.18164 20.127742  -48.95103925 -13.299562 20.749399  -49.482911 -12.76755925 20.74953  -47.90919 -10.424591 16.666219  -48.16966600000001 -11.010274 17.82006  -48.16961125 -11.542513 17.287876  -48.701483 -11.01051025 17.288007  -55.333333 -5.753688 12.918787  -55.333333 -6.393053500000001 12.5496495  -54.66651625 -6.24000675 12.65478975  -54.66651625 -7.163170500000001 12.9623275  -54.66651625 -7.802536 12.59319  -53.99969950000001 -7.64948925 12.69833025  -53.99969950000001 -6.7263255 12.3907925  -54.66651625 -6.879372249999999 12.28565225  -55.333333 -7.032419 12.180512  -55.333333 -6.676851750000001 13.22632475  -54.66651625 -8.08633425 13.26986525  -55.333333 -7.6000155 13.5338625  -55.333333 -7.31621725 12.85718725  -54.66651625 -7.51873775 11.91651475  -54.66651625 -8.4419015 12.2240525  -53.99969950000001 -7.365691 12.021655  -53.99969950000001 -8.28885475 12.32919275  -55.333333 -8.59494825 12.11891225  -55.333333 -7.95558275 12.48804975  -54.66651625 -8.72569975 12.90072775  -55.333333 -8.239381 13.164725  -55.333333 -8.8787465 12.7955875  -55.333333 -7.671784499999999 11.8113745  -55.333333 -9.16254475 13.47226275  -55.333333 -8.52317925 13.84140025  -53.33288275 -7.21264425 12.12679525  -55.333333 -10.641026 17.025641  -54.80145025 -9.85481725 17.35364825  -55.333333 -9.854945000000001 16.82163775  -53.99999975 -10.066313 16.93368725  -52.66666650000001 -9.4916 16.8417335  -53.46811700000001 -9.280104250000001 17.2616945  -53.99999975 -9.280232 16.729684  -55.333333 -9.068864 16.6176345  -54.80145025 -9.068736250000001 17.149645  -54.2695675 -9.0686085 17.6816555  -54.80145025 -10.64089825 17.5576515  -53.46811700000001 -10.06618525 17.46569775  -54.2695675 -10.6407705 18.089662  -54.2695675 -9.854689499999999 17.88565875  -53.205802 -10.640515 19.153683  -53.73768475 -9.85456175 18.41766925  -52.93623425 -9.2799765 17.793705  -52.93623425 -10.0660575 17.99770825  -53.46811700000001 -8.49402325 17.05769125  -52.66666650000001 -8.705518999999999 16.63773025  -52.66666650000001 -7.919438 16.433727  -52.4043515 -10.06592975 18.52971875  -52.13478375 -8.70539125 17.16974075  -52.13478375 -9.491472250000001 17.373744  -51.602901 -9.4913445 17.9057545  -53.73768475 -10.64064275 18.6216725  -51.33333325 -8.130806 16.5457765  -50.8014505 -8.91675925 17.28179025  -51.33333325 -8.916886999999999 16.74977975  -55.333333 -7.496702 16.209628  -54.80145025 -8.282655249999999 16.94564175  -53.99999975 -7.708069999999999 16.3216775  -53.99999975 -8.494151 16.52568075  -55.333333 -8.282783 16.41363125  -45.50851975 -14.3043435 21.18713625  -45.75998925 -15.427008 21.81300225  -46.2919395 -14.89484575 21.813214  -45.760199 -14.8944195 22.345381  -44.444829 -14.8360795 21.7190915  -45.22824875 -15.42658175 22.34516925  -48.162809750000
[...]
<PointData  Scalars="p_O2"> 
<DataArray  type="Float64"  Name="p_O2"  format="ascii">8.3016525790030315e+01  4.6862682557121289e+01  3.1311279319761340e+01  4.5386945634026134e+01  4.6092094444123816e+01  4.3641734304341064e+01  4.6194350642176914e+01  4.5346864260444470e+01  3.8826700238641806e+01  4.7456975306080032e+01  4.0000000000000000e+01  3.9989647753616474e+01  3.4837543032898516e+01  4.0000000000000000e+01  4.0000000000000000e+01  4.1545435013530998e+01  3.6315144735567586e+01  3.9121990619963576e+01  4.2691746800738777e+01  3.4795712825670165e+01  3.6180233710039325e+01  3.7146629180806627e+01  3.3607967944637807e+01  4.1416643642573142e+01  4.2652302194474863e+01  4.5997607096907103e+01  4.5738023057948766e+01  4.1610414878769049e+01  4.4270026145619937e+01  8.3684465543795653e+01  9.9907067015936050e+01  6.3794876012440966e+01  6.5916157420138504e+01  5.0844103158329418e+01  5.5223488998802125e+01  6.7489433781350044e+01  4.0000000000000000e+01  4.0000000000000000e+01  4.2333682251489449e+01  4.0000000000000000e+01  4.0000000000000000e+01  4.0000000000000000e+01  3.6301897611701236e+01  3.8305250743039984e+01  4.0000000000000000e+01  4.0000000000000000e+01  4.0214434172764250e+01  4.0000000000000000e+01  4.0000000000000000e+01  5.6406642876922305e+01  6.0946473738177637e+01  5.8222176603938145e+01  4.0000000000000000e+01  3.4471632682080347e+01  4.0000000000000000e+01  4.0000000000000000e+01  6.1028474202647388e+01  4.0000000000000000e+01  4.0000000000000000e+01  5.1519616697394433e+01  3.9404040158218457e+01  3.6723109344356992e+01  4.0000000000000000e+01  4.0000000000000000e+01  4.0000000000000000e+01  4.0816306022618484e+01  4.0000000000000000e+01  4.0000000000000000e+01  3.9661076236982559e+01  4.0000000000000000e+01  3.9939289681008830e+01  4.0000000000000000e+01  4.0000000000000000e+01  4.0000000000000000e+01  4.0000000000000000e+01  8.7914173612876681e+01  6.1772862489623940e+01  6.0569821052294486e+01  6.0090457898354785e+01  4.3832921777706133e+01  4.4608822255457767e+01  4.3496660005722894e+01  4.3332000972529372e+01  3.9922460156389285e+01  4.5275308634701275e+01  8.7722967932029448e+01  8.7879630402969383e+01  6.2532817547120700e+01  6.1641812871900939e+01  8.9119388510397329e+01  6.2977737388182895e+01  6.4672424043440685e+01  6.3166699011760628e+01  4.6656540177836774e+01  4.8036693550100580e+01  4.8040582556770772e+01  8.8378762547555112e+01  8.7552202322483154e+01  8.8665843993922536e+01  6.3112559964784957e+01  4.4870879275530029e+01  5.3474968497781632e+01  4.3523140871084820e+01  7.9852912737669286e+01  5.7268561260869689e+01  8.9433126957411062e+01  6.2986952385657204e+01  4.1679410101603288e+01  4.2073655704090086e+01  8.7517280505697059e+01  9.1455501734049605e+01  9.0187609346781173e+01  9.0245327003020236e+01  9.6625103589170422e+01  8.9500939116663758e+01  9.2572037910998290e+01  9.0960640993742928e+01  4.6798276601125202e+01  3.2599259719789693e+01  4.5693331718622879e+01  3.4103682977877646e+01  4.0485948892531475e+01  4.6475056999211368e+01  4.8759066048224149e+01  3.3202242929400363e+01  3.1606658260395971e+01  4.5887548460110516e+01  4.5069723435966004e+01  3.9803012942805630e+01  3.9658000061161815e+01  4.8659684653550080e+01  4.6941667767000638e+01  7.8436626749381318e+01  5.4028565388975821e+01  4.7806084431645431e+01  4.8785084485643587e+01  3.9223161990187222e+01  3.8953561454987344e+01  4.2754520846255708e+01  4.1058609048684339e+01  3.6461034141129552e+01  3.6309265754104040e+01  3.6304567647138455e+01  9.4188069643802677e+01  8.3440963937682341e+01  8.0860578582763523e+01  8.1403450039411709e+01  7.3493939089450706e+01  7.6854667814208682e+01  7.4858471362494299e+01  7.9750285320757001e+01  9.4608675683252343e+01  9.4595653690204117e+01  9.1815004959485975e+01  8.0597652036800255e+01  9.3220097314281915e+01  7.8918401227737760e+01  9.4129434110329427e+01  7.8482333469068323e+01  7.5195571209344394e+01  6.7592895139622243e+01  6.5928188572549047e+01  6.5946977584402745e+01  5.3395432266385718e+01  6.0109762426638774e+01  5.7653056237020358e+01  5.5706772518106057e+01  5.8412850602841218e+01  6.0909806472834902e+01  9.0147074204696210e+01  8.9613153474041127e+01  9.0153832784531474e+01  7.1470835763794213e+01  7.0468654021507831e+01  9.0837939705625814e+01  9.1265298992208869e+01  8.9149421109386211e+01  8.9645242724169435e+01  6.8858949178065004e+01  6.8984344335663948e+01  9.0633792641342254e+01  9.0994594662864102e+01  7.0672226593867862e+01  7.0438631393041277e+01  9.0362681203234402e+01  9.1340489766920982e+01  9.1828388453923168e+01  7.2443359141604631e+01  9.1768809096405178e+01  9.1161239644371676e+01  8.1110204194182870e+01  6.9033470063121214e+01  6.9025267321560179e+01  7.0644732451075882e+01  4.0000000000000000e+01  4.0000000000000000e+01  4.0000000000000000e+01  4.3076808849656601e+01  4.3289195735149399e+01  4.0111520499030050e+01  4.0000000000000000e+01  4.0000000000000000e+01  4.0000000000000000e+01  5.6191869893589498e+01  4.9813399202701376e+01  7.0509163139406155e+01  5.6690177411639077e+01  4.0000000000000000e+01  4.2067294017635632e+01  4.0000000000000000e+01  4.0214994294266752e+01  5.7407714892686350e+01  5.5672583633530323e+01  5.0922913116062141e+01  7.1975022321657462e+01  7.0765840013536149e+01  4.0000000000000000e+01  7.7704987937110857e+01  7.9174508624143186e+01  4.0000000000000000e+01  9.5528933876905214e+01  8.5524658470229880e+01  9.0422361213344701e+01  6.7320899570071404e+01  4.7541901666508437e+01  5.7812472916547328e+01  6.0853688421786764e+01  8.7996054132233056e+01  7.9358693214305987e+01  7.1314240375885220e+01  9.2636330942661573e+01  6.6220381409759796e+01  9.0068099943014715e+01  8.0415539190852883e+01  8.8812474021828791e+01  7.9301866625721601e+01  5.5202868204011445e+01  6.4693825541735137e+01  5.3752968977483704e+01  4.6482783578742840e+01  4.7611743445173794e+01  6.3343802100851498e+01  5.1387177230546435e+01  4.8656171100065080e+01  4.2781887272181365e+01  8.9388886133101849e+01  3.2158126246451125e+01  4.3894653176379613e+01  3.4429119138400260e+01  8.0651764465749437e+01  7.4101766563695605e+01  4.9109685082601942e+01  5.4032313641724436e+01  8.5037376953994055e+01  8.5212549913613543e+01  9.5614462433903952e+01  9.5049050334874451e+01  9.5544534360870614e+01  8.8442997215443256e+01  9.6145690941257598e+01  7.3240867424085877e+01  6.6223324659192798e+01  6.3742186471532428e+01  6.2514111337889098e+01  7.4297011559404353e+01  7.5787157958932710e+01  7.4460007771333238e+01  6.7985286452973227e+01  6.8378358086833146e+01  6.4975545716747149e+01  8.6027585107080853e+01  7.0810370459239792e+01  7.3489377847388624e+01  8.9021074077117717e+01  7.1998159874131076e+01  7.3424724402798006e+01  9.1131515622765050e+01  7.5336401433087616e+01  7.6661744388883704e+01  8.8717739644882172e+01  6.3923727038925946e+01  8.9003767832243540e+01  8.8665265961117669e+01  8.8560191888313327e+01  6.5913781820030493e+01  6.5088048223932859e+01  8.8952266750175667e+01  8.9416252959718975e+01  5.0848876233725932e+01  6.3723055750532595e+01  5.1351120569807001e+01  5.4592519823677023e+01  6.6042664297008216e+01  8.8765074742607965e+01  8.9023787915487532e+01  6.7890584608843966e+01  8.9642096586826142e+01  9.0359605118127533e+01  6.6592493372447990e+01  5.1207933846415372e+01  4.6656245714484996e+01  4.3648293923534112e+01  4.3014527223409445e+01  4.3603935979241342e+01  5.8656921736186561e+01  5.8574833514150903e+01  3.6456847848877665e+01  3.9061196025249281e+01  3.8028055970594785e+01  4.4078386821956244e+01  4.4262041359985552e+01  4.4434324133711399e+01  3.7874012002933327e+01  4.1182737462676002e+01  4.0000000000000000e+01  4.0895376127627109e+01  4.0000000000000000e+01  3.5412318940055883e+01  3.7208874052462967e+01  4.0000000000000000e+01  4.1202221510404421e+01  4.1817051069642645e+01  3.7781840263603883e+01  4.1066755163704293e+01  4.0000000000000000e+01  9.5157952505314071e+01  8.0876362486676996e+01  4.8479254254183196e+01  8.3435848241640514e+01  7.8382873963393337e+01  5.0805996775583921e+01  4.4124316679871690e+01  7.8509225509125045e+01  5.3792386688555005e+01  7.4557549660479850e+01  9.2825529367527608e+01  4.0000000000000000e+01  3.7229104271680868e+01  3.8678034781045170e+01  4.0000000000000000e+01  4.2718134163352694e+01  4.8193591249098930e+01  5.6722245328374640e+01  4.9858154898239349e+01  6.8893989914637487e+01  7.0687643567591152e+01  7.7777248180214684e+01  7.8176723712869176e+01  7.8108251063332133e+01  5.2637766002827505e+01  5.3344725760859475e+01  7.6400911587046210e+01  7.7292603549575631e+01  5.2772305330297044e+01  7.9213314850092502e+01  7.8774951825136753e+01  6.6201391878197569e+01  5.4447455714220460e+01  5.4970893533431791e+01  5.8055278221826633e+01  6.8514007368238140e+01  7.3371208265401734e+01  7.0771098665084423e+01  5.8806912402728997e+01  6.1967367824533085e+01  6.2524284163740148e+01  8.3407153195572789e+01  8.4342207229249723e+01  6.8928530071884239e+01  6.6802182955928785e+01  6.9979318720048340e+01  6.8355186781256378e+01  8.3129891573947560e+01  8.2868298428084771e+01  6.8247136913153057e+01  4.2314601821761507e+01  4.3660642464831227e+01  3.9251458832385929e+01  5.1628834972519918e+01  6.1610167203252750e+01  5.1534149277758132e+01  7.4095993142087295e+01  7.3901723176021122e+01  5.5388082779795624e+01  7.9888501744262243e+01  5.7643313433753320e+01  7.9107560647396838e+01  8.0350998493358873e+01  8.1825470807388172e+01  7.7589441704204688e+01  8.0454451317136488e+01  9.5115191811140718e+01  9.5071939197165747e+01  8.9425893834590383e+01  8.4421443479706610e+01  6.8685609727687378e+01  9.0387412116413159e+01  8.3790452322457185e+01  7.7239402841247554e+01  8.6050540273335869e+01  9.4663349886343440e+01  9.2104586120511101e+01  7.8672451755716082e+01  8.9467458212022976e+01  9.2705799812803448e+01  8.8330169308287026e+01  9.0706161724075187e+01  8.4405192734764327e+01  8.6275542530146865e+01  7.5550834510597454e+01  8.6540833191877709e+01  9.6446527104813001e+01  9.1081434839875413e+01  7.9029853457464128e+01  8.9104617976140204e+01  9.2315698804964228e+01  8.8618901218378525e+01  8.8940335452978630e+01  7.7062063687039711e+01  8.8552030370013981e+01  8.3756777925846222e+01  8.4431729342801134e+01  7.1592478800751863e+01  8.9312470264146398e+01  6.5393691868712594e+01  6.3938182941744408e+01  6.1343792926200180e+01  8.8180415074147973e+01  8.8886176831590632e+01  6.1918752400558070e+01  6.0501310092607554e+01  4.4865841610322505e+01  4.4733387951905264e+01  8.8742717382947177e+01  6.1459436348902543e+01  6.1844025847789126e+01  4.4370926281439132e+01  4.1650723178607755e+01  4.4934729404155711e+01  8.7646167596335673e+01  6.1305975478278143e+01  8.7867021075495288e+01  6.2586440645997143e+01  8.7758721946003050e+01  6.2794084038766371e+01  8.8005178101854398e+01  6.1776634527598162e+01  8.7563623722317118e+01  5.4058493009636088e+01  6.4999342781570817e+01  6.4125002283273176e+01  4.9882737639852266e+01  4.4192987053253106e+01  4.7277524264275748e+01  5.0682576447227270e+01  8.8819717679588962e+01  8.9440124871343372e+01  8.9474659214244852e+01  8.9448409787682692e+01  6.5823464617009776e+01  6.6043316317707976e+01  8.9049261298945922e+01  8.8421020071911940e+01  6.4820259827051643e+01  6.4863240738178803e+01  8.8578426847897717e+01  8.9017225058049974e+01  6.4992041022501056e+01  8.8592579258698905e+01  8.9252009411840234e+01  6.6909579695861851e+01  8.9946421398286063e+01  6.5799288823377836e+01  3.9802167705416231e+01  4.7148036687806503e+01  4.7707679478227703e+01  4.6063252192920594e+01  3.8091505656545500e+01  8.6781099159509409e+01  7.2959004773490079e+01  8.8997862910963647e+01  8.8662022459853048e+01  7.1035080743795959e+01  9.1595906658306916e+01  9.4563128312166796e+01  8.8030103840216285e+01  8.6065087475565136e+01  9.5553581845550127e+01  9.6007368516916287e+01  9.6190069691094422e+01  9.6258713715923463e+01  9.6112696010271335e+01  8.8006392195027232e+01  8.3918028848134696e+01  9.4888136052697760e+01  9.5892022022075849e+01  9.5232463589175509e+01  8.6480176910625502e+01  9.7076420433974832e+01  8.9544524733050267e+01  9.6784071745430609e+01  9.6816627573145880e+01  8.8239787462513775e+01  8.6812891768781128e+01  8.8063966392987950e+01  5.0575889359164087e+01  5.2637736171491433e+01  6.7921147710476973e+01  5.6087014752314722e+01  6.7778061186523232e+01  6.0446703086010061e+01  6.4261395220674956e+01  6.4482659275232493e+01  6.8909075067589242e+01  6.4388064486712167e+01  6.4462393866988691e+01  7.9785113703457753e+01  5.0420167317851060e+01  6.3787383984468633e+01  6.5123529578502428e+01  6.9881173723274117e+01  6.8821625283464329e+01  6.4839561850792109e+01  7.7830318258218895e+01  7.9460503315997272e+01  7.4025490940219044e+01  6.8582329113507683e+01  1.0776662460677559e+02  4.9116315302904596e+01  7.5767184159174874e+01  6.6836818362191167e+01  4.0000000000000000e+01  4.0000000000000000e+01  3.7336329549971886e+01  4.0000000000000000e+01  4.0000000000000000e+01  4.0000000000000000e+01  5.4999334273148413e+01  6.7005323525630317e+01  4.0000000000000000e+01  3.8231256121278165e+01  4.0000000000000000e+01  7.6866778631090483e+01  7.8085513145850996e+01  7.2340285580036806e+01  7.1261955797334551e+01  9.2422135863354825e+01  7.9689136298403980e+01  7.9452053993131528e+01  9.2922640530279565e+01  9.3419514181815288e+01  9.3930402466927688e+01  9.3681611965381023e+01  7.7603788915716024e+01  5.7457314044243560e+01  5.5065388705842906e+01  4.7525274012103331e+01  5.4002004097146497e+01  6.3250213437953427e+01  3.2207177794561424e+01  4.3593777562688857e+01  4.0000000000000000e+01  3.9828156179663658e+01  4.0000000000000000e+01  4.0727009513387770e+01  4.0000000000000000e+01  5.3290205243444539e+01  4.0000000000000000e+01  4.0000000000000000e+01  4.0000000000000000e+01  6.0955821749542615e+01  5.2621997153452888e+01  5.1703075898935033e+01  5.6410073747176341e+01  6.5752913281458916e+01  4.4403745839493148e+01  6.2111347512551667e+01  5.2357966425125454e+01  4.8682975214642667e+01  4.7690083147491258e+01  5.1377976841184854e+01  5.1189099773619645e+01  4.4219613399376406e+01  4.6284321630956562e+01  4.4595882191628156e+01  3.9697775905916487e+01  5.0285873857832485e+01  4.8516758096759148e+01  9.7651080933157743e+01  9.3555643208209545e+01  9.3732102687132567e+01  9.3339550808973485e+01  9.8047781428969287e+01  9.4191879905558565e+01  9.4353968902686944e+01  9.0858275949160586e+01  9.0540191694008442e+01  9.7567850729950635e+01  9.2348330414426812e+01  9.7551346749631222e+01  9.8008671881610823e+01  9.3122789649863137e+01  9.7603023402061254e+01  9.7144027271290909e+01  9.7060970026725940e+01  9.7416813706886416e+01  9.2011658623376249e+01  9.5290138095546055e+01  9.1538706943045497e+01  9.5160363717736544e+01  8.5353659628505426e+01  9.3267760760905077e+01  8.7620966622648055e+01  8.9325241320306120e+01  8.9513238569461180e+01  8.8358294639092193e+01  8.7716175339771382e+01  6.2831232991301263e+01  8.8609506468652810e+01  6.3144341580249261e+01  4.7448736712437928e+01  6.3150523285593216e+01  8.9497388481584281e+01  8.8444104471141713e+01  8.8003531031785258e+01  8.7425506374627588e+01  8.5850401143816327e+01  8.9579321262583306e+01  9.0861597499273330e+01  5.8855789279800732e+01  5.4725461745145189e+01  4.2061237339580629e+01  5.1383174462709697e+01  4.7940952906748890e+01  3.8383490157161575e+01  4.2501710075922020e+01  5.5725401814493530e+01  4.7666206118998119e+01  4.5272903502507134e+01  5.1919523752825953e+01  8.3212876771931732e+01  7.6400556022868628e+01  7.9384432275138934e+01  7.8620155880953973e+01  9.2999394282178685e+01  8.2806030807220722e+01  8.3218923672294707e+01  9.3723018729711200e+01  9.3272893657006875e+01  8.0551849024237441e+01  9.4439206895009889e+01  8.4928982634985161e+01  9.5045368966314527e+01  8.4941739146243975e+01  8.4102484613272651e+01  9.4210442094318552e+01  8.1884427349513501e+01  8.4035552892163977e+01  8.9736754744870311e+01  6.9834890951988612e+01  6.9379190162336982e+01  9.0084112324910450e+01  9.0762554627107434e+01  9.1293436539975445e+01  9.0538858984694642e+01  9.0790159650183853e+01  9.6652643292826085e+01  8.9409578502338732e+01  8.1666020109598762e+01  8.1977731226094548e+01  8.9144054077506638e+01  7.8382846015215492e+01  7.7751356867828022e+01  8.2400233884099350e+01  5.4001704012508199e+01  5.1253972010128990e+01  1.0174392617367270e+02  6.8615039883775765e+01  3.8119557467507533e+01  3.5059389323377872e+01  5.8576190845669181e+01  9.0630089797285748e+01  8.6784711614186136e+01  8.6048961813650337e+01  5.0192656653698023e+01  5.1699126584652795e+01  8.4799263635507316e+01  8.2660934545535639e+01  8.3618433771244398e+01  6.4908099249819600e+01  6.6108527652304815e+01  9.1941913915199436e+01  7.5859238408996944e+01  9.2495017810642736e+01  9.1973914509374652e+01  7.0225400661810298e+01  7.6434722470906152e+01  9.2226550701189410e+01  7.8347585782727364e+01  9.3116568408342346e+01  9.3557262939053956e+01  8.9767862073652438e+01  8.9447496384446509e+01  6.3576363299136418e+01  8.8872489787429416e+01  6.6070472080967690e+01  8.8274184900515863e+01  8.9494300252324933e+01  8.7707418950280683e+01  7.2024597507104687e+01  7.2836116505251368e+01  8.8662488647510131e+01  8.9986397464011660e+01  9.1503528544536479e+01  7.3896052997825819e+01  7.6219685142321296e+01  7.6655746368743536e+01  4.7769418165110096e+01  7.0321236503056966e+01  6.4975887767952386e+01  6.6912890685872782e+01  5.2322198478944500e+01  6.7702800318908146e+01  6.1979744706399956e+01  6.7678781286085410e+01  7.6708441414579312e+01  6.6470521929359037e+01  6.1650165498437310e+01  6.3888073710810680e+01  6.8190540709587879e+01  6.1648206334002772e+01  6.9323828608605183e+01  6.5439884949978790e+01  6.1232015502293692e+01  4.6893181924451774e+01  7.9505589592461462e+01  5.3305093682298427e+01  8.7264913628579819e+01  8.6195406435732011e+01  8.4911798129383584e+01  3.7794768846627186e+01  4.0000000000000000e+01  4.0000000000000000e+01  4.0000000000000000e+01  4.6119548861776636e+01  8.8603167019998423e+01  6.2281258690965394e+01  8.8369407120002862e+01  6.1825343928281768e+01  8.8195316304955924e+01  6.2634282983789340e+01  4.7705282221301601e+01  4.2545662866938926e+01  4.0000000000000000e+01  4.0693295861768348e+01  4.0295068156190823e+01  4.0000000000000000e+01  5.1340565592826962e+01  4.0000000000000000e+01  4.0000000000000000e+01  5.0948416067922324e+01  6.4576374810760626e+01  3.9543464932473384e+01  4.0000000000000000e+01  4.2424500866569687e+01  4.8446932753598780e+01  4.8067660119276034e+01  7.1186587222375536e+01  9.9024364154939605e+01  9.6452260114550754e+01  9.7161589990805240e+01  9.6788312238326697e+01  9.5565735837926880e+01  9.5144030872581951e+01  9.6058090311528943e+01  9.6368133314819289e+01  9.5605297074371421e+01  9.4647283131790317e+01  9.8722132567172579e+01  9.8491484608457895e+01  9.8823546683554426e+01  9.5748515642648059e+01  9.5417500398783531e+01  9.6086405643147373e+01  9.8954494918396392e+01  9.8639879773838501e+01  9.8237726745433207e+01  9.6196125446402007e+01  9.6590366300709704e+01  9.9146396671234655e+01  9.8876570138347248e+01  9.9040686770306138e+01  9.6508027396781202e+01  9.5862118536138723e+01  9.8763379503731571e+01  9.8539489063353670e+01  9.6846043680952207e+01  9.7221166931446618e+01  9.8136687219165182e+01  9.8413349768245951e+01  9.8513712137224772e+01  9.5057111772159118e+01  9.8237334170432177e+01  9.6163058459552744e+01  9.4677638877227366e+01  9.4124043509238149e+01  9.3497059206215582e+01  9.8865378415307518e+01  9.5282668187110829e+01  9.5821868231706176e+01  9.8566123339114782e+01  9.7899062858243198e+01  9.3900221448801247e+01  9.4375696380174688e+01  9.4788822947885279e+01  9.3650444099602453e+01  9.2962958268037212e+01  9.2198191081623364e+01  9.8317521810332977e+01  9.5223700918502786e+01  9.4975589695021853e+01  9.4375513357139127e+01  9.4015154685646934e+01  9.2497712134281556e+01  9.3185213414777564e+01  9.0691313156413074e+01  9.1615039219855021e+01  9.0663201461586937e+01  8.9821430347297905e+01  8.8820298654848443e