<?xml version="1.0"?>
<VTKFile type="UnstructuredGrid"  version="0.1"  >
<UnstructuredGrid>
<Piece  NumberOfPoints="6027" NumberOfCells="27681">
<Points>
<DataArray  type="Float64"  NumberOfComponents="3"  format="ascii">-36.188469 19.143198 27.668333  -34.742247 16.912066 27.345687  -35.7836045 16.9051005 26.311295  -35.7817685 15.840805 27.3774265  -35.37874 14.667003 24.954257  -38.316858 17.015456 27.667685  -36.849765 16.9055945 25.2446405  -36.847799 15.8412295 26.310971  -37.2526635 18.079327 27.668009  -37.2546295 19.143692 26.6016785  -38.31882400000001 18.079821 26.6013545  -38.32079 19.144186 25.535024  -34.743078 17.95048 26.306442  -35.784333 17.9429045 25.2727625  -34.3382135 15.7123825 24.949404  -35.3794685 15.704807 23.9157245  -35.380197 16.742611 22.877192  -34.338942 16.7501865 23.9108715  -33.297687 16.757762 24.944551  -37.889026 15.835399 25.2755745  -37.890992 16.899764 24.209244  -37.461194 14.655342 22.883464  -36.419967 14.6611725 23.9188605  -36.845276 14.8040965 27.350627  -37.8889045 14.7951395 26.3159555  -37.460951 12.574823 24.964226  -36.4198455 13.620913 24.9592415  -36.8504935 17.9433985 24.206108  -37.8871395 13.7309145 27.381946  -37.4610725 13.6150825 23.923845  -36.4206955 15.6989765 22.880328  -35.78554 19.008644 24.2058165  -37.2558365 20.2094315 25.5347325  -36.189676 20.2089375 26.601387  -36.190883 21.274677 25.534441  -34.7483215 20.046011 24.205668  -34.744285 19.0162195 25.239496  -34.3429785 17.779978 22.8770435  -33.30576 18.817345 22.876895  -33.6818305 20.045633 25.2725365  -33.683233 21.1115135 24.2052535  -53.205835 -4.255587 25.538577  -52.93625075 -2.99315925 24.1559525  -53.13916475000001 -3.18730825 25.2040325  -53.7377095 -3.53523725 24.8124155  -54.269584 -2.8148875 24.086254  -53.46812525 -2.2728095 23.429791  -53.67103925000001 -2.4669585 24.477871  -53.0724945 -2.1190295 24.869488  -52.8695805 -1.9248805 23.821408  -52.66666650000001 -1.7307315 22.773328  -52.40437625 -3.713509 24.882114  -51.6029175 -3.171431 24.225651  -52.134792 -2.45108125 23.4994895  -52.337706 -2.64523025 24.5475695  -50 -2.087275 22.912725  -50.7347885 -1.56107425 23.2346435  -51.33333325 -1.90900325 22.8430265  -50.80145875 -2.629353 23.569188  -51.53624725 -2.10315225 23.8911065  -52.06812175 -1.3828025 23.164945  -51.469577 -1.0348735 23.556562  -55.333333 -1.374188 22.633931  -54.73478825000001 -1.026259 23.025548  -53.99999975 -1.55245975 22.7036295  -54.8014585 -2.09453775 23.3600925  -54.20291375000001 -1.74660875 23.7517095  -53.40145500000001 -1.20453075 23.0952465  -54.13624350000001 -0.67833 23.417165  -52.939154 0.017528 24.200399  -53.53769875 -0.330401 23.808782  -52.80291025 -0.8566017500000001 23.4868635  -53.60436900000001 -1.39867975 24.1433265  -52.2043655 -0.50867275 23.8784805  -52.27103575 -1.5769515 24.213025  -53.00582425 -1.05075075 24.5349435  -55.333333 4.25641 23.410256  -54.26986925 4.7877715 23.94235875  -53.99999975 3.7134185 23.286581  -54.80151225 4.256125 23.942362  -54.2696915 4.25584 24.474468  -52.936536 4.24478 23.81868375  -53.7380485 4.7874865 24.47446475  -53.46817900000001 3.7131335 23.818687  -52.66666650000001 3.170427 23.162906  -53.2064055 5.319133000000001 24.4744615  -54.80169000000001 4.7880565 23.41025275  -54.27004700000001 5.319703000000001 23.4102495  -53.73822625 5.319418000000001 23.9423555  -53.46835675000001 4.245065 23.28657775  -53.206761 6.382996 23.410243  -52.40507075 5.308358 23.28657125  -53.20658325 5.851064500000001 23.94235225  -52.93671375 4.7767115 23.2865745  -52.1350235 3.7020735 23.16290275  -52.404893 4.7764265 23.8186805  -51.6033805 4.23372 23.1628995  -53.738404 5.8513495 23.41024625  -53.20605 4.25527 25.53868  -52.4045375 3.7125635 24.882899  -52.40471525 4.244495000000001 24.35078975  -52.93635825 3.7128485 24.350793  -51.60320275 3.7017885 23.69500875  -52.13484575 3.170142 23.695012  -51.603025 3.169857 24.227118  -53.20622775 4.7872015 25.00657075  -53.73787075 4.255555 25.006574  -50 2.084444 22.915556  -50.8015125 2.6271505 23.571337  -50.80169025 3.159082 23.03922775  -51.33333325 2.6274355 23.039231  -54.73478825000001 -0.305518 23.04317675  -55.333333 -1.026643 23.175455  -54.73478825000001 0.04202699999999998 23.58470075  -54.13624350000001 0.04241099999999998 23.43479375  -54.73478825000001 -0.678714 23.567072  -55.333333 -0.679098 23.716979  -54.13624350000001 0.7631519999999999 23.4524225  -55.333333 -0.653447 22.65155975  -55.333333 -0.305902 23.19308375  -55.333333 0.06729399999999996 22.6691885  -54.73478825000001 0.415223 23.0608055  -55.333333 0.015992 24.800027  -54.73478825000001 0.389572 24.12622475  -54.73478825000001 0.016376 24.65012  -54.73478825000001 -0.331169 24.108596  -54.13624350000001 -0.330785 23.958689  -54.13624350000001 0.01676 24.500213  -54.13624350000001 0.389956 23.97631775  -55.333333 0.389188 24.27613175  -55.333333 0.04164299999999999 23.73460775  -55.333333 0.414839 23.2107125  -54.73478825000001 0.7627679999999999 23.6023295  -55.333333 0.762384 23.7522365  -55.333333 -0.331553 24.258503  -55.333333 1.508776 22.704446  -55.333333 1.13558 23.22834125  -54.73478825000001 1.135964 23.07843425  -55.333333 0.7880349999999999 22.68681725  -53.53769875 0.39034 23.82641075  -53.53769875 0.017144 24.350306  -50 -4.171087 20.828913  -51.33333325 -3.610542 19.779414  -51.33333325 -4.16342725 19.28224925  -51.33333325 -4.47435775 20.212185  -52.66666650000001 -4.7776285 19.595457  -52.66666650000001 -3.91381275 19.162686  -52.66666650000001 -4.466698 18.66552125  -52.66666650000001 -4.1557675 17.7355855  -52.66666650000001 -3.60288225 18.23275025  -52.66666650000001 -3.049997 18.729915  -51.33333325 -3.9214725 20.70934975  -52.66666650000001 -3.3609275 19.65985075  -52.66666650000001 -4.22474325 20.09262175  -52.66666650000001 -3.671858 20.5897865  -55.333333 -5.38417 18.362001  -53.99999975 -4.2170835 18.545958  -53.99999975 -4.76996875 18.04879325  -53.99999975 -5.08089925 18.978729  -55.333333 -4.83128475 18.85916575  -53.99999975 -3.66419825 19.04312275  -53.99999975 -4.528014000000001 19.47589375  -55.333333 -4.2783995 19.3563305  -55.333333 -3.172629 20.35066  -53.99999975 -3.111313 19.5402875  -55.333333 -3.72551425 19.85349525  -53.99999975 -3.975128750000001 19.9730585  -53.99999975 -3.4222435 20.47022325  -52.674899 6.38274625 23.9423545  -51.87320875 5.30810825 23.81868275  -52.67472125 5.850814750000001 24.47446375  -52.143037 6.3824965 24.474466  -51.87285325 4.244245250000001 24.88290125  -51.0715185 4.23347025 23.695011  -51.07134075 3.70153875 24.22712025  -50.5396565 4.2332205 24.2271225  -52.67436574999999 4.78695175 25.53868225  -51.873031 4.77617675 24.350792  -52.14268149999999 5.318633500000001 25.5386845  -51.34116899999999 4.775927 24.8829035  -52.6745435 5.318883250000001 25.006573  -51.079313 6.381997 25.538689  -50.80948475 5.30760875 24.88290575  -51.61099725 5.85031525 25.53868675  -51.34134675 5.3078585 24.35079425  -52.14285925 5.850565 25.00657525  -51.611175 6.38224675 25.0065775  -50.26982825 3.15883225 23.57133925  -51.8725475 3.712418 25.4150345  -51.071035 3.1697115 24.7592535  -50.53935075 3.70139325 24.75925575  -50.539045 3.169566 25.291389  -51.34086325 4.24409975 25.41503675  -52.67406 4.255124500000001 26.0708155  -52.14237575 4.786806250000001 26.07081775  -52.14207 4.254979000000001 26.602951  -51.3405575 3.7122725 25.94717  -51.07809 4.254688 27.667222  -51.07839575 4.78651525 27.13508875  -50.8085675 3.712127 26.4793055  -51.61008 4.2548335 27.1350865  -50.80887325 4.24395425 25.94717225  -51.61038575000001 4.78666075 26.60295325  -51.0787015 5.3183425 26.6029555  -50.809179 4.7757815 25.415039  -51.07900725 5.85016975 26.07082225  -51.6106915 5.318488 26.07082  -50.2695225 2.627005 24.1034725  -50 0 25  -50.7347885 0.003674249999999993 23.75717  -50.7347885 0.004382 24.80009975  -50.7347885 -0.51743675 24.278281  -50 -0.000707750000000007 23.95707025  -51.469577 -0.51305475 24.07838075  -50.7347885 -0.5181445 23.23535125  -50 -0.001415500000000014 22.9141405  -51.469577 0.008763999999999999 24.6001995  -50 -0.52181875 24.47818125  -50.7347885 -1.0392555 23.75646225  -50 -0.5225265 23.4352515  -50 -1.0436375 23.9563625  -50.7347885 0.525493 24.27898875  -50.7347885 0.52478525 23.236059  -51.469577 1.050986 23.5579775  -51.469577 0.529875 24.0790885  -50 0.521111 24.478889  -50 0.52040325 23.43595925  -50.7347885 1.046604 23.75787775  -50 1.042222 23.957778  -50 1.563333 23.436667  -50.7347885 1.567715 23.23676675  -50 1.04151425 22.91484825  -50 -1.56545625 23.43454375  -50 -1.04434525 22.91343275  -52.2043655 0.013146 24.40029925  -51.469577 0.008056249999999992 23.55726975  -52.2043655 0.534257 23.87918825  -51.078457 -4.254536 27.667007  -50.286896 -4.244590000000001 26.46851425  -50.28687275 -3.71255325 27.000574  -50.80884275 -3.71272075 26.4784365  -50.5392285 -3.1709055 25.289866  -49.49531175 -3.70260725 25.80208125  -50.01728175 -3.70277475 25.27994375  -50.0172585 -3.170738 25.8120035  -49.4952885 -3.1705705 26.334141  -49.495335 -4.234644 25.2700215  -51.07848025 -4.786572749999999 27.13494725  -50.80886599999999 -4.2447575 25.94637675  -51.0785035 -5.3186095 26.6028875  -50.28691925 -4.77662675 25.9364545  -51.07855 -6.382683 25.538768  -50.28694249999999 -5.3086635 25.40439475  -50.80891250000001 -5.308831 24.88225725  -50.80888925 -4.77679425 25.414317  -50.53925175000001 -3.70294225 24.75780625  -50.539275 -4.234979 24.2257465  -50.017305 -4.2348115 24.747884  -51.07852674999999 -5.85064625 26.07082775  -49.7476675 -3.1609595 24.09137325  -49.47803 -2.0871075 23.4348625  -50.26961425 -2.62909025 24.1012955  -49.2256975 -3.160792 24.61351075  -49.74764425 -2.62892275 24.623433  -48.95606 -2.08694 23.957  -50.2696375 -3.161127 23.56923575  -47.91212 -2.086605 25.001275  -48.7037275 -3.1606245 25.13564825  -48.43409 -2.0867725 24.4791375  -49.22567425 -2.62875525 25.1455705  -48.70370425 -2.62858775 25.667708  -51.078472 -8.511155 23.410373  -49.7550275 -7.94772775 23.29724475  -50.2867845 -7.948127 22.7650
[...]
<PointData  Scalars="p_O2"> 
<DataArray  type="Float64"  Name="p_O2"  format="ascii">9.9825753618689731e+01  9.9337608428777983e+01  9.9013303495246404e+01  9.9088977885985031e+01  9.9668576628400189e+01  9.9635715909925651e+01  9.8472818889150318e+01  9.8696098539397497e+01  9.9764732279374684e+01  9.9729635657458317e+01  9.9624154765163951e+01  9.9492936774207621e+01  9.9339677107076653e+01  9.8930572912629145e+01  9.9777673592244511e+01  9.9668134495384308e+01  9.9599615820067982e+01  9.9822667898458022e+01  9.9833282936677804e+01  9.7908694494353114e+01  9.7822801169250965e+01  9.9212304835593670e+01  9.9558202839337596e+01  9.8716051665228662e+01  9.8109068738152715e+01  9.9330881891710732e+01  9.9578792075807286e+01  9.8512262857969830e+01  9.8275959386748156e+01  9.9353197372482740e+01  9.9511920113550332e+01  9.8924069067753095e+01  9.9742875086549105e+01  9.9828410600079110e+01  9.9763324493826161e+01  9.9288706077029985e+01  9.9238865741246457e+01  9.9728709073343950e+01  9.9799599393056226e+01  9.9482711949002393e+01  9.9477465985750570e+01  9.3311147930940720e+01  7.2606309237376152e+01  8.4235871038826687e+01  8.8223606230507926e+01  8.4341553143391238e+01  7.1586133911445415e+01  7.9716807646741444e+01  7.6051069348181599e+01  6.7553135624552525e+01  5.9638477295459730e+01  7.8049207540869389e+01  6.2361739965597558e+01  6.0984125019128790e+01  6.9562488598388967e+01  9.2026157437051921e+01  6.1237185460116507e+01  5.3749473602292696e+01  6.7671717154281524e+01  6.3121421247306976e+01  5.8104971615755410e+01  6.6085589720189120e+01  9.1207169401592807e+01  8.2729263246280681e+01  7.0990744904203382e+01  8.5338796032618120e+01  7.9645956277174633e+01  6.6790498622385911e+01  7.5136160557454971e+01  6.7620211256055029e+01  7.0588978979044427e+01  6.2424036293492875e+01  7.4934234740974844e+01  6.2407288869280329e+01  6.6624866970768366e+01  7.1408633586450748e+01  9.7068929381693692e+01  9.2929244476698400e+01  7.9638690850649823e+01  9.4978106452478301e+01  9.3942109339862029e+01  7.6272834427541383e+01  9.3163184601355667e+01  7.8853400920764059e+01  6.4467651523084513e+01  9.2147848867544681e+01  9.3326948802928072e+01  9.2941922379647480e+01  9.2560793844923651e+01  7.7999633485792572e+01  9.1613006215057823e+01  7.2252179546125163e+01  9.1798914994891803e+01  7.3390179376450334e+01  6.4070251439380129e+01  7.4503299913879715e+01  5.8802697265343816e+01  9.2532526398672999e+01  9.3430620742747109e+01  7.7938052492377082e+01  7.6449006577046063e+01  7.7832721549188648e+01  6.3722828804419549e+01  6.5039835472044984e+01  6.2210691837820129e+01  9.3261149245108484e+01  9.3748978739239220e+01  9.5455386479314228e+01  6.8006380718779326e+01  6.2573642717118275e+01  5.3146926573276460e+01  8.1896735552837839e+01  9.2267620284289734e+01  8.3639707689353202e+01  7.5107590317494427e+01  8.4075863760368435e+01  9.2856989836009788e+01  7.4989987668255509e+01  9.1501491889180642e+01  9.2128640020490607e+01  9.0985482831229163e+01  8.2251631046096804e+01  9.4247281396597629e+01  8.5404805441239318e+01  8.7853983617998878e+01  8.5368352727721813e+01  7.7769413996036405e+01  8.0546973201646352e+01  7.7763929403354240e+01  9.3759627735621990e+01  9.2960713426977094e+01  9.2260981449118319e+01  8.4327520420502594e+01  9.3078117864222889e+01  9.3689529165356916e+01  9.1336312928331481e+01  9.2555690507658937e+01  8.2858327364383115e+01  9.1443329475790449e+01  7.0821499706378162e+01  7.3473840550674851e+01  9.7801145698547415e+01  4.8210702677138329e+01  4.3846840423658840e+01  3.9835908070124006e+01  5.0604843326710764e+01  4.7717279649191994e+01  4.7719983063868376e+01  4.3158841308111590e+01  4.4176055892833986e+01  4.3768099791978720e+01  4.5580594392127765e+01  4.8386327057655755e+01  5.2450477177627292e+01  5.2044327367326161e+01  8.5855046661036724e+01  5.2224030522591910e+01  5.0560433847533822e+01  5.7928011310700604e+01  8.6278876613220504e+01  5.4736177814408052e+01  5.8483878822897317e+01  8.6592120818307166e+01  8.8217112495783965e+01  5.7094455009757553e+01  8.8137115602514413e+01  5.9623586780748084e+01  6.2175309854380224e+01  9.1720524848258378e+01  7.3778888796978023e+01  9.1682146738293270e+01  9.2002176786783352e+01  7.7364482124893257e+01  6.3549470374564137e+01  6.4302442473234265e+01  6.7641282129153964e+01  9.2811460988927863e+01  7.5898995992419898e+01  9.2740526600183202e+01  7.8070852319896190e+01  9.2391652111832130e+01  9.3108278314777834e+01  7.8115674134517420e+01  9.2769133677805740e+01  7.6014436832699843e+01  9.2186661431203149e+01  9.2579061988537248e+01  7.6214044926740954e+01  7.9089485190389979e+01  6.7443167609752422e+01  7.0771163030793417e+01  7.2450891896795525e+01  7.9286149705722266e+01  9.3607645824409303e+01  9.3487543207047665e+01  9.3821619880739405e+01  8.0920148582584474e+01  9.4991338095469089e+01  9.4613409123327756e+01  8.2546638671515808e+01  9.4414865582860898e+01  8.1315741996240632e+01  9.3657197929724518e+01  9.4093383077961292e+01  7.9700790469973683e+01  9.3728894214813934e+01  9.3401384044107672e+01  8.3046523036212307e+01  8.6174182820257954e+01  7.8106854567107391e+01  6.6480028149294952e+01  6.6060728934001389e+01  1.1597171522215169e+02  7.0854569296581658e+01  7.6454073871466136e+01  8.6570503277141043e+01  7.2792083552241692e+01  9.1403375625139233e+01  6.8721682337326342e+01  9.1801811716262080e+01  8.3962133990611292e+01  6.7361147861510403e+01  7.6932535376023210e+01  6.5474029361074088e+01  7.0125436955905371e+01  8.6454806073065384e+01  9.4631062474855554e+01  6.8193004147496609e+01  8.2150968401403659e+01  8.1951400928953916e+01  6.2066074748070761e+01  1.0299917251766520e+02  8.9116765239185639e+01  9.8057354944235342e+01  6.5355451574531102e+01  6.4325024704220127e+01  6.1654878531391006e+01  9.5083307125738216e+01  8.3335812669560880e+01  8.4902341865074675e+01  8.2620510885116303e+01  7.2986498749729847e+01  7.7337489628849312e+01  7.4096746157500846e+01  7.5875254996231405e+01  7.9146516740458779e+01  7.5279750125656776e+01  9.4647573741724571e+01  8.0980385371420766e+01  9.4085401228146964e+01  8.2315530506821005e+01  9.3323099982960784e+01  8.0581719175196341e+01  7.8494724415794579e+01  7.9649790055903594e+01  7.0681846662806620e+01  6.8370785879042131e+01  7.0814030701629378e+01  9.3702803010245646e+01  7.9703250656621307e+01  7.5081936013758494e+01  8.3999003485443197e+01  8.1073067478049879e+01  8.1397704050199323e+01  8.3493200398406429e+01  7.6774978072902044e+01  9.3332899282610498e+01  8.3493983995942131e+01  9.1415774115298163e+01  8.1637839741431776e+01  8.4715957032494231e+01  9.1531803911153375e+01  7.5873337660775348e+01  7.3724808649019778e+01  7.4823671715671281e+01  6.7365263505482986e+01  6.8347399321175843e+01  6.9739145678973330e+01  6.6136387498426615e+01  6.3446031361800301e+01  7.1815061119637619e+01  9.2188512866447027e+01  9.2829391698032083e+01  7.8627871316075272e+01  7.7185352993477551e+01  9.4449315183021724e+01  8.0666475250227791e+01  8.2047802090014827e+01  7.9574462924187984e+01  7.1353097806805295e+01  7.5182485403128865e+01  7.3648071842355421e+01  9.3786349363159502e+01  8.9694655077969529e+01  9.0043442340793163e+01  7.9067947604206481e+01  7.8720423884660178e+01  7.8455870313660057e+01  7.7133706504145167e+01  8.8877335134602845e+01  8.0891143443047739e+01  8.6007895298853100e+01  8.7330558819463377e+01  7.6546316764030038e+01  7.6419282617659178e+01  7.6471074529747995e+01  9.8865489463924717e+01  9.6389128212220058e+01  9.7000942588380269e+01  9.6749209924667966e+01  9.4936583942553170e+01  9.4933089896034019e+01  9.4430526938909992e+01  9.5426394243732162e+01  9.5799660550769374e+01  9.3757993923172791e+01  9.8771919332153146e+01  9.5470062951736082e+01  9.8579756170195310e+01  9.6064755950761480e+01  9.5796847240951067e+01  9.8337146862447824e+01  9.5279463354887028e+01  9.6466793368486876e+01  9.8195955783926337e+01  9.4781165072839585e+01  9.8327953584487730e+01  9.5579093296984979e+01  9.7012899116843442e+01  9.3578949940662710e+01  9.6613490584950270e+01  8.9105847680271410e+01  8.1033695166828963e+01  8.5492997254755508e+01  8.7799893725047923e+01  9.6356863687439059e+01  9.3346587321731832e+01  9.1575196458707495e+01  9.5728273269422615e+01  9.2529640103873135e+01  8.5738539285833241e+01  8.6572668682005599e+01  8.4502570815299663e+01  7.8573906307458884e+01  7.4977808794797838e+01  8.3224235816825740e+01  9.0770385303425485e+01  9.2233563183506334e+01  9.0496055572614821e+01  9.5887046097310233e+01  9.5476295683883734e+01  8.5107683780256835e+01  8.2828404792698919e+01  8.4218221963055427e+01  7.7985085921183583e+01  7.5550012912803638e+01  7.4757420618216969e+01  9.2404328789583886e+01  9.2359683850002455e+01  7.2411701908496482e+01  7.2458336729910883e+01  8.0253681703787208e+01  8.7136460238722577e+01  8.0930760536235027e+01  8.1001820079794726e+01  8.5908582199614912e+01  9.4573967938718781e+01  8.7101304656632308e+01  9.1977400874160139e+01  9.3052455130225482e+01  9.6787693320667401e+01  9.6570318797873355e+01  9.3540742152745750e+01  8.8988713595449752e+01  8.7686689556895530e+01  9.3288791045975614e+01  9.6259225129479759e+01  9.4512970947924273e+01  8.6435350968152704e+01  7.8275703994113726e+01  9.5803654009451193e+01  8.0152214649766250e+01  9.8971522579605292e+01  9.8054809651217838e+01  9.7188003259640411e+01  9.5624558986774090e+01  9.4188436829529820e+01  9.6666356917490646e+01  9.7104772120842682e+01  9.8250909494989543e+01  9.4599212683623378e+01  9.6926918230900924e+01  9.7506370405015474e+01  9.6257575839328041e+01  9.5108727631893302e+01  9.4740195222330556e+01  9.8059666338826986e+01  9.5171604281335533e+01  9.7552082150425406e+01  9.7257823762716043e+01  9.7221141418710033e+01  9.6280119005659358e+01  9.5578658209123603e+01  9.4084201694652123e+01  9.8043027838906724e+01  9.4144926650648145e+01  9.3973690680766765e+01  9.7036250802884069e+01  9.7192277357786224e+01  9.6678866970534941e+01  9.6957397488869134e+01  9.6330676796989778e+01  8.2464145997014029e+01  8.5197783066358582e+01  8.3842781194717730e+01  8.9723648708952823e+01  8.4955611974902538e+01  9.6200849543718718e+01  8.8656763299644794e+01  8.7798244319898657e+01  8.6634675677436405e+01  8.6201583448963845e+01  8.2617695710433637e+01  8.1271837145659475e+01  9.5693287810943616e+01  9.3865899528756259e+01  9.4784853462089728e+01  8.7678689151698876e+01  8.6517463502072971e+01  8.7128932869717829e+01  8.5812410162227934e+01  9.4801197464932528e+01  8.8334792508504876e+01  8.4999820947150369e+01  8.6268957643976279e+01  9.3133236261569380e+01  9.5006536311064806e+01  8.4032423678231694e+01  7.8885664785544421e+01  8.3514570606882913e+01  8.5390618034250437e+01  9.5101679148091151e+01  9.4446407361124884e+01  9.2015942573009497e+01  8.5448343219297840e+01  8.1931409910720845e+01  8.6708377240226582e+01  8.0542378896274201e+01  8.1900084724658569e+01  8.7133654828248510e+01  9.8006547306248848e+01  9.3592173490507392e+01  9.4186281552778070e+01  9.4724909290239879e+01  9.5020473977328464e+01  9.2450937219802881e+01  9.7182541100434534e+01  9.1752856524583279e+01  9.2493909889808236e+01  9.2884918503649317e+01  8.9224178734101613e+01  9.0240078614335005e+01  9.1148302928790173e+01  9.7714950534609770e+01  9.0946484154816361e+01  9.2691385695059793e+01  9.3496457386727371e+01  9.3674651592904695e+01  9.2643503237574933e+01  9.7431967417084337e+01  9.2030257768776664e+01  9.7637742886197245e+01  9.4584267931413549e+01  9.5020943905793928e+01  7.5851569207261178e+01  5.3474690032811473e+01  6.8607038194075955e+01  7.0022320496331261e+01  9.3138593926667212e+01  9.2283257579352366e+01  9.1779658792771784e+01  7.9445840919462356e+01  5.8904830006250883e+01  6.4664282632102598e+01  7.5706873164355585e+01  5.3945554517076509e+01  5.0427828021626063e+01  6.1904631065423338e+01  5.6185385499801811e+01  9.0880514084197173e+01  8.9066858155594019e+01  6.3976651503191086e+01  6.6238150273317444e+01  8.8989427233005458e+01  9.0853386404722613e+01  9.2350654079860107e+01  9.0103830858265198e+01  6.8626835759260544e+01  7.2179883522372023e+01  9.3122597064630341e+01  6.9971374711836717e+01  5.6000060843691820e+01  5.8994643184591887e+01  6.3653775264894961e+01  7.3604520056275078e+01  5.4958221478022359e+01  7.4808386048525477e+01  6.1215946510438734e+01  7.6952370933790988e+01  7.8315368677166489e+01  5.7143259638630070e+01  6.6012324819041083e+01  6.3740001437793183e+01  5.9686910738300163e+01  4.9157665504827655e+01  5.1913699828743340e+01  5.4763226527182489e+01  4.8685913355577533e+01  5.1513413238743986e+01  4.9618111464907905e+01  9.7931579251311717e+01  9.2611532112643303e+01  9.2114407096070209e+01  9.3301654725681999e+01  9.0860186184932502e+01  9.0006299576673499e+01  8.9169898780919453e+01  8.6945515406512897e+01  8.8084840225760118e+01  8.9014173933075426e+01  9.7631109278589975e+01  9.0483041451420746e+01  9.7060245770260565e+01  9.1440224448382935e+01  9.5895252870247703e+01  8.8001659086961965e+01  8.9551593962567253e+01  8.8898952358404401e+01  8.7223317975703537e+01  8.6004688561359373e+01  8.4566775024077955e+01  9.6620232707674532e+01  9.0819302419271764e+01  9.1429012308238697e+01  9.0122102410104702e+01  9.0541667144279629e+01  9.6524275787002836e+01  9.6998283578153163e+01  9.6096296577467982e+01  9.0122449937160383e+01  9.6481870083006243e+01  8.9019567703345089e+01  8.8401460421547114e+01  9.8022648136426412e+01  9.5895014394724427e+01  9.7850124533396695e+01  9.8249304574530257e+01  9.6225699139357260e+01  9.8684477101720532e+01  9.7635489363498664e+01  9.7360722241176788e+01  9.5053855046648351e+01  9.7514547213446775e+01  7.9440979234657107e+01  6.5997742757735494e+01  6.7981389721047364e+01  6.8484067566424528e+01  8.0335136861625116e+01  8.4072112967408742e+01  8.2240407315316958e+01  7.1990090650859997e+01  7.5114182175204007e+01  7.6977818552756602e+01  8.1029445979646226e+01  6.7608432402922432e+01  7.5876572560409087e+01  6.7004054326623134e+01  7.5682552092999288e+01  6.1549110837051529e+01  9.3790497640612642e+01  9.5627247369783817e+01  9.7007218663022130e+01  9.4696758307967883e+01  9.7232698386327641e+01  9.5675708671620441e+01  9.8013915623280923e+01  9.6239695607577858e+01  9.8629174798277802e+01  9.4980492458935984e+01  9.7548055665407389e+01  9.0381479495471623e+01  8.8835783506574231e+01  9.1613630914104888e+01  9.0553798255912042e+01  9.0106341176580614e+01  9.0422845102923404e+01  8.8849446588344122e+01  8.5660262350021313e+01  8.7891032050724320e+01  8.8005250618528407e+01  8.5739564279096228e+01  8.5570950643187714e+01  8.8801271418136054e+01  8.7088582613588699e+01  8.7306308646494898e+01  9.1644311091237526e+01  8.7981097429302835e+01  8.8620488960493859e+01  9.0293716054298883e+01  4.4918040838260950e+01  3.9241638200564651e+01  4.1566262632780557e+01  4.3007507385828376e+01  4.5275412939679192e+01  4.8180459675622650e+01  4.4631539825748114e+01  4.1682094708285341e+01  5.1722223964198548e+01  8.5156963182042901e+01  4.8903932654105098e+01  8.2041076366184171e+01  4.9625372351347067e+01  5.5775636176472375e+01  7.5612319958553911e+01  4.5272903502507134e+01  8.0285811762491221e+01  4.4792224852514821e+01  9.6492551715538355e+01  9.5955123626737574e+01  9.5964778055239208e+01  8.7290391653396981e+01  8.4132577165336087e+01  7.8824251584203651e+01  7.5171558422412446e+01  9.5258463593551923e+01  8.5566788694228350e+01  8.4169217241238869e+01  9.4957713507540106e+01  9.5617672210686209e+01  8.5721599389770716e+01  9.4913363333220516e+01  9.5481536856938007e+01  9.5556898822642495e+01  6.6920517583768017e+01  1.1178521604910124e+02  6.3640630017606163e+01  7.2941962856963528e+01  8.1087766039755920e+01  6.6361585935795503e+01  5.9786415948663858e+01  9.5156484032192751e+01  9.0674580904682344e+01  7.5512345244408152e+01  9.5486135746108687e+01  6.0613658747747948e+01  1.0276001620308726e+02  9.3451635559571159e+01  7.2742726324153836e+01  7.3993508452477172e+01  6.3937042833155630e+01  6.5625463008254343e+01  6.2457688698822018e+01  6.0071491618312557e+01  6.2562942269850687e+01  9.1933894986604969e+01  7.5203133805775394e+01  9.2265591316940686e+01  7.6844400729950067e+01  7.7471304826004371e+01  7.9365475172423373e+01  7.6520096919728545e+01  6.9492129151371543e+01  6.6807570033192249e+01  7.1531607275191988e+01  9.2829872494119101e+01  7.3712485845934609e+01  7.5771060977331786e+01  8.0334479716797091e+01  7.6744299195404437e+01  8.0161696220456747e+01  7.7460015950479431e+01  7.0626891332813813e+01  8.6261028815286707e+01  7.8347784917094643e+01  8.1377583469467609e+01  8.8812140200250298e+01  8.2472916468464220e+01  8.4060570327915471e+01  8.1746208909577845e+01  8.3440738103797500e+01  8.7478830837186962e+01  8.6115160341750851e+01  7.9420285004345615e+01  9.2763676411417322e+01  8.0783042484457141e+01  8.3552099348431625e+01  8.2509455564097166e+01  9.1609242935048115e+01  9.3394047607442573e+01  8.4324973716541933e+01  8.5993481096034429e+01  9.3604201087468425e+01  7.3393785172647426e+01  8.7793685623453186e+01  8.6034925727361014e+01  7.6270896383101586e+01  6.0404317474932384e+01  6.5886912575394092e+01  6.3503207904318330e+01  7.7810555136296784e+01  9.4332002581624238e+01  9.3292399917616137e+01  9.3994753690325183e+01  9.2324058869998709e+01  9.2370908009439859e+01  9.3058155471320035e+01  9.1661529784783994e+01  9.0721856350947860e+01  9.3609688197221558e+01  9.8136968875756153e+01  9.8246886794332909e+01  9.4979687897889093e+01  9.3807840307452821e+01  9.7988535504228636e+01  9.8131060607070054e+01  9.7939341969562435e+01  9.3233247286040893e+01  9.7769086112587573e+01  9.7470245664271559e+01  9.2732867014586205e+01  9.7751998980517016e+01  9.7030341618069500e+01  9.1982545056831981e+01  9.7600787002241759e+01  9.7341039268657369e+01  9.8586095360087597e+01  9.5350444868219967e+01  9.4458735212121610e+01  9.8458870610752058e+01  9.8359979996083197e+01  9.8171905859000660e+01  9.4605169060021524e+01  9.3266020094018202e+01  9.4109681355437900e+01  9.5903614922311149e+01  9.6207102424857425e+01  9.5638519411212869e+01  9.4322364305173437e+01  9.4707519080155720e+01  9.5287197662641077e+01  9.4783810623593837e+01  9.8342052404781199e+01  9.5448201806103654e+01  9.6035300284221748e+01  9.8501257578462116e+01  9.5149315698068946e+01  9.5489844312197974e+01  9.6031551932070400e+01  9.6282862737719185e+01  9.2599955242831456e+01  9.1408215950692110e+01  9.1022700467226500e+01  9.1618824142636029e+01  9.0043101687801254e+01  8.9062282274952352e+01  9.2374266510132756e+01  9.4034353594120191e+01  9.4902325942855327e+01  9.3039944660005332e+01  9.7886460774607400e+01  9.3986358975922570e+01  9.3531605654069040e+01  9.2946520801497670e+01  9.7530454713689494e+01  9.7238779926822488e+01  9.7490669576606535e+01  9.3051706666698607e+01  9.2121383173247111e+01  9.1662816065005714e+01  9.3716290366408813e+01  9.8078420311550985e+01  9.4445017218628450e+01  9.7737082836320212e+01  9.7916888563464724e+01  9.8249328299459307e+01  9.7942715664301502e+01  9.4158478638483444e+01  9.5039830228019341e+01  9.8407459282481568e+01  9.8634160158692595e+01  9.6087609297676664e+01  7.0034555912079625e+01  8.7045008770826385e+01  9.1675662997545288e+01  9.0024879675391844e+01  6.3997196141863370e+01  8.1916107421942556e+01  7.4560911050881799e+01  6.2096165716421396e+01  5.4591664239545629e+01  9.3275247673755729e+01  6.9753491966862640e+01  8.2547549644210633e+01  9.0898121280810187e+01  9.0232115381225952e+01  6.8880995971973960e+01  8.1595615966681336e+01  6.0212030242876644e+01  5.0524103166989278e+01  5.8210831910143185e+01  6.7610510010059002e+01  5.0921428503605021e+01  5.3267732654247695e+01  4.6530851405933397e+01  9.0597972519600489e+01  4.8452261677814946e+01  3.6171093703734485e+01  5.8058234516808326e+01  7.7500641165196498e+01  8.8172394964801057e+01  7.3591201373413753e+01  8.7627318862068350e+01  9.0587636930772518e+01  9.1242847517068398e+01  7.5294644584623597e+01  8.9845649358773159e+01  8.5804444401584831e+01  7.2682335331073972e+01  6.5471049412176896e+01  7.5682730061640640e