<?xml version="1.0"?>
<VTKFile type="UnstructuredGrid"  version="0.1"  >
<UnstructuredGrid>
<Piece  NumberOfPoints="6542" NumberOfCells="26881">
<Points>
<DataArray  type="Float64"  NumberOfComponents="3"  format="ascii">-36.184742 40.443606 6.371652  -33.697859 38.9618375 6.3403035  -34.76184 38.960447 5.277713  -33.7212745 40.0013585 5.277367  -35.120761 40.4449965 7.4342425  -34.05678 40.446387 8.496833000000001  -32.6572935 40.002749 6.339957500000001  -31.257807 39.559111 4.183082  -32.2983725 38.5181995 4.183427999999999  -33.338938 37.477288 4.183774  -29.796041 44.702569 8.501390000000001  -28.4468235 43.16604049999999 7.387136  -29.48595 43.1735345 6.3405155  -28.4450745 44.216838 6.3380875  -27.094108 43.731107 4.174785  -27.095857 42.6803095 5.2238335  -28.1349835 42.6878035 4.177213  -29.175859 41.6445 4.179641  -28.1367325 41.637006 5.2262615  -27.097606 41.629512 6.272882  -25.536674 46.832073 10.631253  -25.30125 44.2071445 9.491606000000001  -26.601114 44.706503 11.692383  -26.601494 45.768683 10.6298235  -27.666314 44.705293 10.628394  -25.019235 41.618303 8.362462000000001  -23.981312 41.6120275 9.406660500000001  -22.9397875 42.657374 9.4028385  -25.2775745 43.163008 10.559417  -23.9777105 42.6636495 8.358640000000001  -34.059126 38.320595 10.620279  -31.591264 36.8461415 10.562595  -32.6570045 35.781125 10.56187  -32.656203 36.8447165 9.4990805  -32.99498850000001 37.2584285 12.746583  -32.994187 38.32201999999999 11.6837935  -34.0599275 37.2570035 11.6830685  -34.060729 36.193412 12.745858  -31.929248 38.323445 12.747308  -31.25328 35.368838 8.377882  -27.666297 42.580263 12.75344  -27.411165 39.9836605 11.6051745  -26.3454995 41.0475195 11.606981  -27.3830835 41.05508 10.5618365  -28.7319625 41.516404 12.7516335  -29.797628 40.452545 12.749827  -28.448749 39.991221 10.56003  -27.09987 39.529897 8.370233000000001  -26.062286 39.52233649999999 9.4153775  -25.024702 39.514776 10.460522  -31.926435 42.574822 8.498744  -29.487243 41.06132599999999 8.451430500000001  -30.5526605 39.9971275 8.4502115  -30.552058 41.059954 7.387988  -30.8622225 41.5133675 10.62441  -30.86162 42.576194 9.562186499999999  -31.9270375 41.5119955 9.5609675  -31.92764 40.449169 10.623191  -29.796805 42.577566 10.625629  -29.177681 39.545086 6.277232  -34.054731 42.571958 6.373311  -31.592121 41.0669665 6.340913  -32.65626899999999 41.0655345 5.2781965  -32.9916075 41.5106045 8.4977885  -32.990583 42.57339 7.4360275  -34.0557555 41.50917250000001 7.435072  -29.5120205 42.10216699999999 7.385813000000001  -28.4472055 42.103539 8.4492555  -28.1376435 40.587299 6.275057  -28.4483375 41.0537315 9.497931000000001  -27.40802 42.09793449999999 9.4940455  -27.098738 40.5797045 7.321557500000001  -26.0584205 41.6239075 7.317672  -26.0595525 40.5741 8.3663475  -30.551147 42.109661 6.3391925  -29.17677 40.594793 5.2284365  -26.342766 42.099283 10.557951  -26.3427745 43.161798 9.495428  -27.6663055 43.642778 11.690917  -28.731551 42.5789145 11.6895345  -28.7315595 43.6414295 10.6270115  -31.6172305 39.9957365 7.3870325  -32.99221 40.447778 9.560012  -35.1197365 41.50778200000001 6.3724815  -31.5922165 38.9553755 8.452408  -32.6567865 38.9539845 7.389229  -31.256793 37.461582 6.281625  -30.217237 38.503334 6.2794285  -27.666328 46.830003 8.503669  -26.3377335 46.32561099999999 6.3366555  -25.2969365 46.3226245 7.380439  -25.273184 47.389033 6.337783  -26.6017785 47.893425 8.504796500000001  -25.009139 45.821219 4.169642  -31.6181185 37.8832515 9.49863  -32.6579595 37.8910885 8.450952000000001  -30.216952 37.453745 7.329303  -31.2550365 36.41521 7.3297535  -30.2151955 36.407373 8.3774315  -29.177111 37.445908 8.376981000000001  -27.38196 43.16740249999999 8.450638  -27.4051525 44.211252 7.3835955  -28.7311775 44.703931 9.564892  -26.340289 44.212614 8.4470975  -25.014264 43.719935 6.265801  -26.055935 42.6747235 6.269341499999999  -25.535914 44.707713 12.756372  -25.304843 42.0930075 11.6021495  -26.6006175 42.5818975 13.8174855  -26.6011055 43.643988 12.754906  -29.4873695 38.9492265 10.563404  -30.5531795 37.8846765 10.5621445  -30.5523755 38.9475385 9.500086  -30.863438 39.387995 12.7485675  -30.862634 40.450857 11.686509  -31.928444 39.386307 11.6852495  -36.189788 36.190797 10.619415  -33.69705949999999 36.850524 8.4524165  -33.721534 35.7798175 9.4986485  -34.7623905 35.785625 8.4519845  -35.124457 37.255696 10.619847  -33.334993 35.380453 6.284554  -32.2941365 35.3746455 7.331218  -36.186966 38.317347 8.495687  -34.7609795 36.8489 7.3901205  -35.123046 38.318971 9.557983  -36.188377 37.254072 9.557551  -32.295893 36.4210175 6.2830895  -25.0167495 42.66911899999999 7.3141315  -26.340296 45.274969 7.384735  -27.380218 45.280555 6.339227  -25.0117015 44.770577 5.2177215  -26.0516235 44.776163 4.1722135  -26.054186 43.725521 5.220293  -25.0219685 40.5665395 9.411491999999999  -34.762952 37.8973175 6.3397305  -36.185854 39.3804765 7.433669500000001  -35.121873 39.381867 8.496259999999999  -30.216833 40.6018055 4.1813615  -30.217744 39.5520985 5.230157  -31.2573 38.5103465 5.2323535  -33.7218795 37.8894645 7.388656  -26.3454185 39.98511999999999 12.6694615  -25.27982 41.049154 12.6710265  -27.666216 41.5178635 13.8159205  -25.534938 42.583532 14.881531  -26.6005365 41.519498 14.879966  -27.666135 40.455464 14.878401  -28.7318815 40.4540045 13.814114  -31.925023 44.700084 6.374892  -30.550441 43.172292 5.2772665  -29.5095655 44.2155955 5.2748385  -30.860532 44.70132649999999 7.438141  -27.666321 45.76764799999999 9.566031500000001  -28.7311845 45.76628599999999 8.502529500000001  -32.993383 39.384882 10.621735  -32.2978655 37.469435 5.2326995  -26.601501 46.831038 9.567461  -35.1252585 36.1921045 11.6826365  -25.275469 45.276004 8.448526999999999  -33.3369655 36.4288705 5.234164  -28.1387755 39.5374915 7.3237325  -27.666398 48.955028 6.378574  -26.3377685 47.3881235 5.274108  -27.666363 47.8925155 7.4411215  -26.6018135 48.9559375 7.442249  -29.177396 38.495497 7.3271065  -30.861238 43.6386955 8.500067000000001  -29.796423 43.6400675 9.5635095  -31.615295 42.108229 5.276476000000001  -31.925729 43.63745299999999 7.436818000000001  -32.989877 43.636021 6.3741015  -29.513755 39.98953299999999 9.496712  -28.1384905 38.4879025 8.373607  -29.7972165 41.5150555 11.687728  -34.057953 39.383491 9.558555999999999  -31.24147 43.75853 0  -32.645221 44.227992 -2.126787  -33.7099355 44.2266545 -1.06341  -32.6458485 45.2907605 -1.063391  -34.050227 46.822991 -2.126782  -34.0495995 45.7602225 -3.190178  -35.114314 45.758885 -2.126801  -36.178401 44.694779 -2.12682  -35.1136865 44.6961165 -3.190197  -34.048972 44.697454 -4.253574  -36.179487 46.820513 0  -36.179526 44.6948545 -0.001200499999999938  -36.178944 45.75764599999999 -1.06341  -37.2435895 45.7564105 0  -36.180069 45.7577215 1.0622095  -38.307692 44.692308 0  -37.24304650000001 44.6935435 -1.06341  -37.2441715 44.693619 1.0622095  -36.180651 44.69493 2.124419  -31.5811845 45.292044 -2.1267715  -32.9849355 45.761506 -4.2535585  -32.985563 46.8242745 -3.1901625  -31.920899 46.825558 -4.253543  -31.610257 44.2259455 -3.163798  -30.206506 43.7564835 -1.037011  -30.5462205 45.2899975 -3.1637825  -29.171542 43.754437 -2.074022  -29.795071 48.953198 4.251731  -27.380293 47.3909685 4.2287385  -28.4446295 47.3900535 3.165317  -27.398584 48.4367475 3.1646685  -28.7307345 48.954113 5.3151525  -26.3342475 48.4376625 4.22809  -25.002097 47.920297 2.077606  -26.0481425 46.873603 2.0782545  -27.094188 45.826909 2.078903  -21.275979 48.961101 -12.76292  -21.0768225 48.444291 -9.478887  -21.0586085 47.399152 -10.54224  -20.0122155 48.445024 -10.542761  -22.340586 48.960368 -11.699046  -23.405193 48.959635 -10.635172  -22.1232155 47.398419 -9.478366000000001  -18.748452 47.928947 -8.322602  -19.794845 46.88307500000001 -8.322081000000001  -20.841238 45.837203 -8.32156  -27.66182 46.831175 -8.507004999999999  -27.4009155 44.22689149999999 -7.372193  -26.3371105 45.2905275 -7.372362  -27.376961 45.2916525 -6.3313865  -28.725625 45.767539 -8.506836  -29.78943 44.703903 -8.506667  -28.440766 44.2280165 -6.3312175  -27.092102 43.75213 -4.155768  -26.0522515 43.751005 -5.1967435  -25.012401 43.74988 -6.237719  -23.40255 46.836311 -12.761139  -23.1920715 44.22642 -11.5815095  -22.127188 44.2276365 -12.645176  -22.1284875 45.2895635 -11.5819495  -24.4648345 44.7112405 -13.8239255  -24.466134 45.7731675 -12.760699  -23.4012505 45.774384 -13.8243655  -23.399951 44.712457 -14.887592  -25.529718 44.710024 -12.760259  -20.854425 43.742816 -10.40276  -25.532153 46.833929 -10.633918  -24.232662 45.2902985 -9.477039  -24.2273795 46.336581 -8.4360395  -23.1866955 46.335566 -9.477739  -21.8872045 44.7919355 -8.32086  -21.881922 45.838218 -7.2798605  -22.922606 45.839233 -6.238161  -22.9278885 44.7929505 -7.2791605  -22.933171 43.746668 -8.32016  -23.1638995 47.399434 -8.436666500000001  -24.468673 47.896782 -10.634545  -21.063892 45.2900435 -12.6460655  -22.3379545 46.83679100000001 -13.825255  -21.273359 46.837271 -14.889371  -22.336655 45.774864 -14.8884815  -21.081413 46.3354975 -11.5830895  -20.0168175 46.3359775 -12.6472055  -18.760276 45.834684 -10.40504  -19.8073505 44.78875 -10.4039  -22.118459 48.4445145 -8.4370265  -20.831725 47.929394 -6.238881  -21.8771655 46.8843135 -6.238521  -20.8364815 46.8832985 -7.2802205  -32.651306 42.1204615 -4.228232999999999  -31.5872475 43.184546 -4.228207  -32.652087 43.182978 -3.164935  -34.048191 43.6349375 -5.316872  -32.9833515 43.6365055 -6.380144  -32.9841325 44.699022 -5.316846  -31.919293 44.70059 -6.380118  -34.04741 42.572421 -6.38017  -31.255202 41.668502 -2.076296  -29.794872 53.205128 0  -28.730371 52.1427145 -2.049999999997887e-05  -29.794506 52.1420265 -1.0634675  -28.7305535 53.205818 -1.0636285  -27.666235 53.206508 -2.127257  -28.7301875 52.1427165 -2.127096  -29.79414 51.078925 -2.126935  -27.39707 50.5394625 -1.0634675  -29.794873 51.078952 2.126174  -29.7945065 51.0789385 -0.0003805000000001169  -27.3974365 50.539476 1.063087  -29.7948725 52.14204 1.063087  -28.
[...]
<PointData  Scalars="p_O2"> 
<DataArray  type="Float64"  Name="p_O2"  format="ascii">9.9948297716354418e+01  9.9872535118429269e+01  9.9830117960544854e+01  9.9814112347721348e+01  9.9989942205251921e+01  9.9974582933944433e+01  9.9894954688478279e+01  1.0000661079346915e+02  9.9981125673616631e+01  9.9996736368154686e+01  9.9971028414432624e+01  9.9939242244971112e+01  9.9905173028607265e+01  9.9931572114038687e+01  1.0007725007036771e+02  9.9959679023668016e+01  9.9969430205414668e+01  1.0002661946249900e+02  9.9981987061683739e+01  1.0000989566626639e+02  9.9938344686309222e+01  9.9981204407663810e+01  1.0002326794215406e+02  1.0003017675248945e+02  9.9972730458475894e+01  1.0001139133906089e+02  9.9993815579372736e+01  9.9969968527137695e+01  9.9960757286028610e+01  9.9965451156054769e+01  9.9972344393491014e+01  9.9919966763531747e+01  9.9882599734057450e+01  9.9908000358261106e+01  9.9989118537128249e+01  9.9998331365952652e+01  9.9949275354272089e+01  9.9963458987237559e+01  9.9984822797699977e+01  9.9973593214442133e+01  9.9991414539627101e+01  9.9990010069286086e+01  9.9986285734172284e+01  9.9977137391812917e+01  9.9980749329110694e+01  9.9997203123265038e+01  9.9976379093571197e+01  9.9995544962055462e+01  9.9984426177264226e+01  9.9998669681186712e+01  9.9981419797891874e+01  9.9955004619048935e+01  9.9951938062138339e+01  9.9944366787107796e+01  9.9997413934940184e+01  1.0000662067278977e+02  9.9974721126085541e+01  9.9987056473481786e+01  9.9996913586205963e+01  9.9995419656999672e+01  9.9953374310417345e+01  9.9908468300006263e+01  9.9864579455897044e+01  9.9996528134041981e+01  9.9997765204290502e+01  9.9966656921465429e+01  9.9945769938281416e+01  9.9970160526934279e+01  9.9985140208275638e+01  9.9973510823582984e+01  9.9983955120215342e+01  9.9997868966539727e+01  9.9990861368282452e+01  9.9987134366215955e+01  9.9919375166612014e+01  9.9979466932619374e+01  9.9988562172607629e+01  9.9962977355581643e+01  9.9987110781485313e+01  1.0000952131067585e+02  9.9985477677077384e+01  9.9929852308355152e+01  1.0000102898629643e+02  9.9999457908588681e+01  9.9931953930162848e+01  9.9916339449533282e+01  9.9984467685632552e+01  9.9984851779419216e+01  9.9915791529871115e+01  9.9982597276786791e+01  9.9995343760917692e+01  9.9540814306781016e+01  1.0012600881301211e+02  1.0013135778132121e+02  9.9939702179695956e+01  9.9907929298699315e+01  9.9973640779929042e+01  9.9990544532026561e+01  9.9982418595441231e+01  9.9988573154512878e+01  9.9952580925239047e+01  9.9958825104815020e+01  9.9995334660746849e+01  9.9987907389895085e+01  1.0006385319238109e+02  9.9964128201388888e+01  9.9975622924963943e+01  9.9990746333769891e+01  1.0001013978953381e+02  1.0000955519848929e+02  9.9961836751425309e+01  9.9950584194904621e+01  9.9958618186092096e+01  9.9996896585031635e+01  1.0000736654850279e+02  9.9970656052117903e+01  9.9937470117837790e+01  9.9860668714760806e+01  9.9851809265039947e+01  9.9796555795174527e+01  9.9976015926614735e+01  9.9960684518559958e+01  9.9956289957439111e+01  9.9950601536034142e+01  9.9833773426840366e+01  9.9984245808217196e+01  9.9923136633478464e+01  9.9971050603329672e+01  9.9972176927634521e+01  9.9857729446437133e+01  9.9851199099057453e+01  9.9863384220169465e+01  9.9878342286220459e+01  1.0001105862969619e+02  1.0000259571411988e+02  9.9832004578891130e+01  9.9944160144397131e+01  9.9987862580196818e+01  9.9984877254750899e+01  9.9972015763519494e+01  9.9977303792352870e+01  9.9877830840664785e+01  9.9988145274154675e+01  9.9982760007019095e+01  9.9985815629497836e+01  9.9990509571092758e+01  1.0000681075738650e+02  1.0000026948259270e+02  1.0000875765072794e+02  9.9953070680045172e+01  9.9870127972490124e+01  9.9832149932868703e+01  9.9999452382518513e+01  9.9997011086653160e+01  1.0004014554245313e+02  9.9993578796265567e+01  9.9963353260886862e+01  1.0004302093301240e+02  9.9970589495573677e+01  9.9876621717552354e+01  9.9967308631243725e+01  9.9980708705298710e+01  9.9962760580741900e+01  9.9406824097120364e+01  1.0017068967304853e+02  1.0005321863868234e+02  9.9998719801967013e+01  1.0000005833452880e+02  9.9990804547061643e+01  9.9847370937345445e+01  9.9976595524972637e+01  9.9999066046239562e+01  9.9970903529947549e+01  9.9989642041084920e+01  9.9985932630525809e+01  9.9959692686888147e+01  1.0068139211701003e+02  9.9606398527976950e+01  1.0022897051356478e+02  1.0022924926054793e+02  9.9962991132970160e+01  1.0007682353654228e+02  1.0008786611295537e+02  9.9994991750577498e+01  9.9920945375377769e+01  9.9854605011295249e+01  9.9966805779024526e+01  1.0007843441726598e+02  9.9940866436894936e+01  1.0000382859290080e+02  9.9951476702329515e+01  9.9965915229376080e+01  9.9950513003812304e+01  9.9933844882197903e+01  1.0005093035519943e+02  9.9283336213950818e+01  1.0000105994563494e+02  9.9981896847899520e+01  9.9851146860582105e+01  9.9520432231375793e+01  9.9938760591616969e+01  9.9747002621760089e+01  1.0021436537897797e+02  9.9836018244867049e+01  9.9522568301909885e+01  9.9528418489249503e+01  9.8930812688057941e+01  9.9903900506682447e+01  9.9657342147464604e+01  9.8669026610742193e+01  9.9195381483266260e+01  1.0035245820528915e+02  9.9940590994532414e+01  9.9753680217527005e+01  9.9342349030466295e+01  9.9941357984261927e+01  1.0002799923909890e+02  9.9963078362290005e+01  9.9417906146741970e+01  1.0107466841776326e+02  9.9674965952086239e+01  1.0025338355588976e+02  9.9938213054323612e+01  9.9943828633426307e+01  9.9858632807045097e+01  9.9836877864374600e+01  1.0001560042792265e+02  9.9971066314443846e+01  9.9935695088877750e+01  1.0007353741234823e+02  1.0002340845214226e+02  1.0007619703657106e+02  9.9935114223537724e+01  9.9974137274267534e+01  9.9985236455128884e+01  9.9869825456182653e+01  1.0002129747933313e+02  1.0002837339453013e+02  1.0000869649387086e+02  9.9975875323455426e+01  9.9974995096054073e+01  1.0008705379381915e+02  9.9933298272717707e+01  9.9873374016899547e+01  9.9999349165131321e+01  9.9942117389029889e+01  9.9797390459056160e+01  1.0012912167156910e+02  1.0023763209933399e+02  9.9889263244099283e+01  1.0008457428544328e+02  9.9390315425246470e+01  1.0011081150162278e+02  9.9846900127320524e+01  1.0004338787114375e+02  9.9937143773248465e+01  1.0002649415621147e+02  9.9907614917003315e+01  9.9926350025377033e+01  1.0029661563387319e+02  9.9792883199808941e+01  1.0014664257907376e+02  1.0108086675250638e+02  9.9708713924565942e+01  9.9851026803865111e+01  9.9810253019552064e+01  9.9818758815940456e+01  9.9785331772242856e+01  9.9961462698784644e+01  9.9976181057177200e+01  9.9982237898922193e+01  9.9961884412171116e+01  9.9969247864104830e+01  9.9989686135650444e+01  9.9800187251230483e+01  1.0063710923110980e+02  1.0018069583248530e+02  9.9305924498907572e+01  9.9872637880344428e+01  9.9897089856466820e+01  9.9885360611563868e+01  9.6251575276591410e+01  9.9825142765398311e+01  1.0003739411074601e+02  9.7420951333405171e+01  9.9503194239383873e+01  1.0050887143624153e+02  9.9896103141144664e+01  9.9807907691918061e+01  9.9854341620330459e+01  9.9768633762301548e+01  9.9830064217973003e+01  9.9914998672565119e+01  9.9996300315938541e+01  9.8818176829402205e+01  1.0021245036721132e+02  1.0002979813351240e+02  9.9905919415739433e+01  9.9665991098586915e+01  1.0199627070148242e+02  1.0055786457170240e+02  1.0088402606991508e+02  9.9981625814962825e+01  9.9964696105006283e+01  9.9960217012932517e+01  9.9969695872035288e+01  1.0000652880946870e+02  9.9980392837235641e+01  9.9965218944901011e+01  1.0007000974084615e+02  9.9976715602288522e+01  1.0001508020017138e+02  9.9925207516289191e+01  9.9848821206436142e+01  9.9828557324440027e+01  9.9863005979959382e+01  1.0026804216712954e+02  9.9814282078917458e+01  9.9876188320721198e+01  1.0004185743852388e+02  1.0007666768193215e+02  9.9892509156365904e+01  1.0010129774131381e+02  1.0020549019176308e+02  9.9867557497202341e+01  9.9909663787831519e+01  9.9748970490883266e+01  9.9714347625192687e+01  9.9466623711298624e+01  9.9968836454243359e+01  9.9752499277991788e+01  1.0015889287703418e+02  9.9955871893773576e+01  9.9962425418485012e+01  9.9992656499329058e+01  9.9420283177686869e+01  9.9448719959792982e+01  1.0022474133322609e+02  1.0105905407628109e+02  9.9785678604130339e+01  9.9921188843480863e+01  1.0011424447373365e+02  1.0021576908259593e+02  1.0006973533676268e+02  9.9772079032828586e+01  1.0020789747171256e+02  9.9868745113924149e+01  9.9674146004326047e+01  1.0071127008838162e+02  1.0008080062478031e+02  1.0014287624436439e+02  1.0031134703565164e+02  9.9802803957702295e+01  9.7688212037949569e+01  1.0022183168025194e+02  9.9692592162094329e+01  1.0007257034723155e+02  9.9972875367462350e+01  9.6006739433263576e+01  1.0024021242629428e+02  9.9750176692450509e+01  1.0012442299883027e+02  1.0047846642113011e+02  1.0038388326783578e+02  1.0003411546013511e+02  1.0005921850349152e+02  1.0026433914549995e+02  9.9727729581519384e+01  1.0022289425854248e+02  9.9960369699369764e+01  9.9806634095144190e+01  1.0000693650587934e+02  9.9895882836574231e+01  9.9874345286284438e+01  9.9946473683873393e+01  9.9939368073958676e+01  1.0002332639064855e+02  9.9974398787242791e+01  9.9980103031737272e+01  9.9939587474589047e+01  1.0001818377410949e+02  9.9953278174609267e+01  1.0018790158842734e+02  1.0004386868275579e+02  1.0011787272067303e+02  9.9861822360787343e+01  9.9800908277572759e+01  9.9913816262656852e+01  9.9967325015107718e+01  9.9832819164010544e+01  9.9837117579208481e+01  1.0000933398120260e+02  9.9980465436999253e+01  9.9973349982659755e+01  1.0005062179585460e+02  1.0007856661561301e+02  1.0004163003687638e+02  1.0003144943730473e+02  9.9746495330019641e+01  9.9708734498562634e+01  1.0021812589400128e+02  1.0026352853537890e+02  1.0006899260923998e+02  1.0012157428284317e+02  1.0005681262423597e+02  1.0009139457309007e+02  1.0017057563752495e+02  9.9955396472834806e+01  9.9906368720350486e+01  9.9955679687351164e+01  9.9917977034297124e+01  9.9945089580006396e+01  9.9220110890492009e+01  1.0028820853891663e+02  9.9933390324691757e+01  9.9853645233943809e+01  9.9490341052030246e+01  1.0079744355912167e+02  9.9750780015687681e+01  9.9469881175272434e+01  9.9911690865194515e+01  1.0021921461308041e+02  9.9279614643236528e+01  1.0075249213519285e+02  1.0061155504646692e+02  1.0021059522305346e+02  9.9582943560936258e+01  1.0001710935158520e+02  1.0005390814333069e+02  9.9844686333599597e+01  1.0000208296186956e+02  1.0002764904054305e+02  9.5401727278562888e+01  1.0010767236980502e+02  1.0072184834722650e+02  9.9694470137603517e+01  9.9695904795164608e+01  1.0013111307777051e+02  1.0000426787178490e+02  1.0001280516100041e+02  9.9834208755657144e+01  1.0121893848588542e+02  9.9795305191463640e+01  9.9796180374209371e+01  9.9996015609919681e+01  9.9893695224899218e+01  9.9999290788769954e+01  9.9937394132457811e+01  1.0010572133853094e+02  1.0001084253731202e+02  9.9956207979834403e+01  9.9937789824212217e+01  1.0022841141662407e+02  1.0008692868747166e+02  1.0012644803474110e+02  9.9961548402321725e+01  9.9897021537252584e+01  9.9815258651094709e+01  9.9764133190540861e+01  9.9810415446988543e+01  1.0026057337772851e+02  9.9911610642186972e+01  9.9656656807809370e+01  9.9968196878485614e+01  9.9964148976371277e+01  9.9963493254050775e+01  9.9953887956217486e+01  9.9978203328370938e+01  1.0001632964406249e+02  1.0021557896989961e+02  9.9973607602983122e+01  1.0025195151155265e+02  1.0006873617068213e+02  9.9971262327655907e+01  9.9931506978821631e+01  9.9759616614152137e+01  9.9968874521689230e+01  9.9906891476235089e+01  9.9727217782615654e+01  9.9928556006496549e+01  1.0000656374223666e+02  9.9855084674540663e+01  9.9294524962744731e+01  9.9240055761027335e+01  1.0013669664346770e+02  9.9955373015878621e+01  9.9961456609433228e+01  1.0000988737008153e+02  9.9973145284844634e+01  9.9963162044194476e+01  9.9977628977722603e+01  1.0001695725529201e+02  9.9899453960151632e+01  9.9782119495048264e+01  9.9893388213491420e+01  9.9971673139183295e+01  9.9849086151962894e+01  9.9741519520939704e+01  9.9940167290331487e+01  9.9986476384223849e+01  9.9336216368723555e+01  1.0059698117010997e+02  9.9573732533006307e+01  9.9825296811766975e+01  1.0002900741337388e+02  9.9806363219470668e+01  9.9963583076050568e+01  1.0004395008971196e+02  9.9973646977099662e+01  1.0003618105188333e+02  9.9837238550012714e+01  1.0004003703956124e+02  9.9977324114027994e+01  9.9859837952403865e+01  1.0000455433527313e+02  1.0008873221220173e+02  9.9919286035249172e+01  9.9738536942530331e+01  9.9842597595182795e+01  9.9335956194088467e+01  1.0015362228995350e+02  9.9900221957771151e+01  1.0013812725961203e+02  1.0027267311503756e+02  9.9960096415369080e+01  9.9948485893089085e+01  1.0003740111092672e+02  9.9987087271468155e+01  1.0001818685475455e+02  9.9969052056072357e+01  9.9945785476082833e+01  9.9978217148996578e+01  1.0000866030054954e+02  9.9995694056367611e+01  9.9988620489051343e+01  9.9986249740635841e+01  1.0000479200506408e+02  9.9976317271527805e+01  9.9959890858088599e+01  9.9992810411497103e+01  1.0001757876213649e+02  9.9505789087644445e+01  9.9614459284198077e+01  9.9049483432834379e+01  1.0018634817211762e+02  9.9126262153535492e+01  9.9722419204394114e+01  9.9928897760289104e+01  9.9811161588781360e+01  9.9863413863311877e+01  9.9846776859854501e+01  9.9791782961362571e+01  9.9921243539762315e+01  9.9327701512303520e+01  1.0008567448040803e+02  1.0014217748539538e+02  9.9387509270370629e+01  9.9245031566514953e+01  9.9877748868158179e+01  9.9489432167962761e+01  9.9166831753188930e+01  9.9464075145419315e+01  9.9595856744074794e+01  1.0083418877439163e+02  9.9954690975638187e+01  9.9872297956530659e+01  1.0004395504863622e+02  1.0002507065129832e+02  9.5433011504902581e+01  1.0071600227985944e+02  9.9700774673154399e+01  9.9661976924840872e+01  1.0008544608297831e+02  9.9572455462842285e+01  9.9815425614570657e+01  9.9758525404501071e+01  9.9705337905294925e+01  9.9956914326420588e+01  9.9953895973746910e+01  9.9944275995234335e+01  9.9493236096861835e+01  9.9841672041598613e+01  9.9436423712914745e+01  1.0007423042086974e+02  1.0011262885509704e+02  9.9905153271945693e+01  9.7372377798174099e+01  1.0007168445226314e+02  1.0062273682707395e+02  9.9563085922490245e+01  9.9963419851046595e+01  1.0001016016825187e+02  1.0003526017792440e+02  9.9940548091427601e+01  9.9849649903528842e+01  1.0002777244097372e+02  1.0009571129712168e+02  9.9982947499037408e+01  1.0013217523607972e+02  9.9782408112156261e+01  9.9966203670402820e+01  9.9932293147002667e+01  1.0064123055257605e+02  9.9909283473280254e+01  1.0071463055985450e+02  1.0003189295059695e+02  9.9924900913169651e+01  9.9913363051973079e+01  9.9880979326847935e+01  9.9975411721260826e+01  1.0002839434250180e+02  1.0002839095826715e+02  1.0001427347692254e+02  9.9981608917386566e+01  9.9917845881720410e+01  9.9960319572013859e+01  9.9966325945052361e+01  9.9948133961211028e+01  1.0001899336587222e+02  9.9979791835753218e+01  1.0016658888359203e+02  9.9877440044326150e+01  1.0003734249452170e+02  1.0013566123065371e+02  1.0003456325378920e+02  9.9467101291287207e+01  9.9993754848449370e+01  1.0004477562880848e+02  1.0018973798918292e+02  1.0015904125137187e+02  9.9553109280793961e+01  9.9972402303813794e+01  9.9587207058354494e+01  9.9972402118520108e+01  9.9989179328997395e+01  1.0002291151485302e+02  1.0000718889378250e+02  9.9957826291415259e+01  9.9946663617477284e+01  9.9999867743358109e+01  9.9909368569938536e+01  9.9981002696058525e+01  9.9959295012986559e+01  9.9949366681706877e+01  9.9999353700109893e+01  1.0001907366058687e+02  9.9966561862624772e+01  9.9989140890511237e+01  9.9996392805583980e+01  9.9934529890310117e+01  9.8527981048594398e+01  9.9949992501258137e+01  1.0001300088467346e+02  9.9986123588941098e+01  9.9986205725781915e+01  1.0019605701833579e+02  9.9838500945022446e+01  9.9855786917263799e+01  9.9380514161175498e+01  1.0011224513613662e+02  1.0010996172312043e+02  1.0002537140673282e+02  9.9967527385378133e+01  9.9992435825539758e+01  9.9994369191988440e+01  1.0006317504776005e+02  9.9854965079135241e+01  9.9796945551329884e+01  9.9956674264405038e+01  9.9963539475728609e+01  9.8886783895004740e+01  9.9958381116719920e+01  1.0110457748726218e+02  9.9914985270610430e+01  1.0051973581924118e+02  1.0005519012593402e+02  9.9856335316848771e+01  1.0000676945350850e+02  1.0000784044262400e+02  9.9953091478430025e+01  9.9945679582464749e+01  9.9680524164872850e+01  9.9714044732020781e+01  1.0011702119566399e+02  1.0003661626852207e+02  9.9861338297832873e+01  9.9879923012321683e+01  1.0001956782368491e+02  9.9231001272590561e+01  1.0000173778068070e+02  9.9958261596081712e+01  9.9948842808849903e+01  1.0001025333751892e+02  9.9515584793786175e+01  9.9529223802167593e+01  9.9968907701467927e+01  9.9987633106408794e+01  1.0004411499321613e+02  9.9779277430803944e+01  1.0015097246535512e+02  9.9929628386421470e+01  1.0001458366688185e+02  9.9942947249408221e+01  9.9987571515499340e+01  9.9995235760980961e+01  9.9498261323499818e+01  1.0002454627580683e+02  9.9935657379991980e+01  9.9206807946104774e+01  9.9651324397820801e+01  1.0001551926117347e+02  9.9909166692600451e+01  9.9865246532666461e+01  9.9856886886088162e+01  9.9899974393892037e+01  1.0004233758834089e+02  9.9932965431792084e+01  9.9927555734708704e+01  1.0022173997881542e+02  9.9884293320309482e+01  1.0007975866192500e+02  9.9966961582929045e+01  9.9859223580521743e+01  1.0001565814774253e+02  9.9973538656689811e+01  9.9989601570713191e+01  1.0002200867579447e+02  1.0006823053012359e+02  9.9964464012803575e+01  9.9976758350405674e+01  9.9959700906148655e+01  9.9976351476297879e+01  1.0001703874994871e+02  1.0000116827035366e+02  9.9831288392905620e+01  9.9845586923625333e+01  1.0003051987912639e+02  1.0002496640549296e+02  1.0003432519145058e+02  9.9964029385071896e+01  1.0001047734794574e+02  9.9882176536878148e+01  9.9839981794546730e+01  9.9341712254769604e+01  9.9379382441669492e+01  1.0003274654900390e+02  9.9877652134189859e+01  9.9439893844141210e+01  1.0057038375431605e+02  9.9796418494242786e+01  9.9343313720530119e+01  9.9467806960384735e+01  1.0022381972991604e+02  9.9591881475219878e+01  9.9831605049459583e+01  9.9255066570885660e+01  9.9891318330905364e+01  1.0006306014803803e+02  9.9881058694720593e+01  1.0007730279466060e+02  9.9877377016986870e+01  9.9421024752311865e+01  1.0011203520554051e+02  9.9974833790962236e+01  1.0027570209203651e+02  1.0003996640133347e+02  9.9961361364977677e+01  1.0011702300792231e+02  1.0000989039330491e+02  1.0011744423378461e+02  1.0011699256081252e+02  9.9900884700789831e+01  9.9826094015685186e+01  1.0013376505902279e+02  9.9981372045656357e+01  9.9614063625117012e+01  1.0002852422574706e+02  9.9513270757116899e+01  9.9707189707169775e+01  9.5803797064282847e+01  9.9472933250865381e+01  1.0046754145207996e+02  1.0063779218223027e+02  1.0005620250478070e+02  9.9822267532369324e+01  9.9944633013244044e+01  9.9941847486594881e+01  9.9998376434640022e+01  1.0003512961864389e+02  9.9933256197096441e+01  1.0003426890975500e+02  1.0010784823855219e+02  9.9951347828496580e+01  1.0003268664985391e+02  9.9755035059837752e+01  9.9976481473373795e+01  1.0003421909149013e+02  9.9128138544393366e+01  1.0008477047540727e+02  1.0024286921595402e+02  1.0023743812173306e+02  9.9841320450964886e+01  9.9889618984847118e+01  1.0036033571382299e+02  1.0031952342411442e+02  9.8906766222966084e+01  9.4236921951323723e+01  8.8935253361115443e+01  9.4729688478119343e+01  1.2524860672382589e+02  9.9447570816566397e+01  1.0228954856000134e+02  9.4193680838657841e+01  1.3081904746467214e+02  1.1009171852489091e+02  8.9554015889925452e+01  1.0047123005271197e+02  9.8305309462438856e+01  9.9147414205637233e+01  9.3558229611675799e+01  9.9948592724657559e+01  9.9043789643527802e+01  9.9590896781325128e+01  9.8936814605374479e+01  1.0014469113516579e+02  9.9756298907209882e+01  1.0069480196992281e+02  9.9107780336526176e+01  1.0024080927503317e+02  1.0112886309620694e