<?xml version="1.0"?>
<VTKFile type="UnstructuredGrid"  version="0.1"  >
<UnstructuredGrid>
<Piece  NumberOfPoints="6089" NumberOfCells="27967">
<Points>
<DataArray  type="Float64"  NumberOfComponents="3"  format="ascii">-34.06399 29.805018 19.130992  -31.582837 28.433346 18.9838175  -31.5828685 29.4990835 17.918048  -32.6489645 28.432245 17.918791  -32.9978625 29.806119 20.1960185  -31.931735 29.80722 21.261045  -31.233939 27.059472 16.70659  -29.796208 27.674953 25.528839  -27.4243425 26.3219875 25.25367  -28.4536935 26.3278715 24.2184355  -27.4250115 27.349247 24.225742  -25.053815 27.023541 22.922645  -26.081828 24.974906 23.9432665  -26.082497 26.0021655 22.9153385  -27.111179 24.98079 22.908032  -25.052477 24.969022 24.978501  -25.053146 25.9962815 23.950573  -28.7294025 27.675445 26.5951525  -27.662597 27.675937 27.661466  -26.357537 26.3224795 26.3199835  -26.358206 27.349739 25.2920555  -29.79475 25.540941 27.664308  -27.4236135 25.2549815 26.3214045  -28.7286735 26.608439 27.662887  -29.795479 26.607947 26.5965735  -28.452095 25.30123 25.246675  -28.451366 24.234224 26.3144095  -27.107982 22.927507 24.964511  -26.0802295 23.9482645 24.971506  -29.482619 24.238467 25.278913  -29.483348 25.305473 24.2111785  -29.170488 22.935993 22.893518  -28.139235 22.93175 23.9290145  -28.1408335 23.9583915 22.900775  -27.1095805 23.9541485 23.9362715  -34.064123 27.672667 21.263211  -32.650213 26.335689 20.0140985  -32.649031 27.3660695 18.9849005  -33.68722 26.3368175 18.9759635  -33.310317 25.000968 16.688716  -32.27331 24.9998395 17.726851  -32.272128 26.03022 16.697653  -31.235121 26.0290915 17.735788  -31.236303 24.998711 18.764986  -31.928644 25.53981 25.531547  -30.549566 24.2379015 24.2125325  -30.54935 25.265695 23.1849555  -31.5832935 24.239706 23.1770005  -31.237943 22.939602 20.822454  -30.2042155 22.9377975 21.857986  -30.2039995 23.965591 20.830409  -29.170056 24.99158 20.838364  -29.170272 23.9637865 21.865941  -31.584019 27.4029655 20.0130155  -31.9309905 28.7404305 22.328579  -32.997929 28.7399435 21.262128  -31.5832745 26.336176 21.0805495  -32.9971845 27.673154 22.329662  -31.930246 27.673641 23.396113  -29.797496 29.80866 23.393844  -28.453769 28.423192 22.123039  -27.4235475 29.4495365 22.1269165  -28.452023 29.454018 21.093959  -27.110042 27.037724 20.852234  -31.5806865 23.213411 24.2059035  -31.235336 21.913307 21.851357  -31.232729 20.887012 22.88026  -30.2016085 21.9115025 22.886889  -34.0640565 28.7388425 20.1971015  -29.483132 26.3332665 23.1836015  -28.1406175 24.986185 21.873198  -34.062183 25.539475 23.398343  -32.647456 23.2132435 23.1393015  -32.650063 24.2395385 22.1103985  -32.9954135 25.5396425 24.464945  -30.861697 25.5403755 26.5979275  -30.862426 26.6073815 25.530193  -30.551466 28.428945 20.0195885  -30.550152 29.461144 18.988704  -30.202568 27.055071 17.742361  -30.201254 28.08727 16.7114765  -29.168569 29.115068 16.716363  -29.169883 28.082869 17.7472475  -29.171197 27.05067 18.778132  -33.68715349999999 27.402993 17.909854  -33.68456399999999 23.2106185 22.104818  -33.306945 20.881762 20.811293  -32.269837 20.884387 21.8457765  -32.272444 21.910682 20.8168735  -30.550151 26.3326105 22.1172385  -31.5840945 25.3066215 22.1092835  -30.2031795 24.9951455 19.801675  -31.237123 23.9691565 19.79372  -30.20375 26.0246905 18.771559  -34.752922 27.368134 16.8789445  -33.687004 28.4349065 16.8780895  -35.129908 28.7382455 19.131847  -36.195826 27.671473 19.132702  -34.7530715 26.3362205 17.910709  -33.310018 27.064795 14.625187  -33.3101675 26.0328815 15.6569515  -27.663813 29.809872 25.526315  -26.358814 28.4167065 24.22448  -27.663205 28.7429045 26.5938905  -28.7300105 28.7424125 25.527577  -31.929445 26.6067255 24.46383  -28.453125 27.3563385 23.1905365  -27.3869275 28.423798 23.1892745  -29.796852 28.7418065 24.4613415  -33.685088 25.307804 20.0071085  -33.30818499999999 23.9719545 17.719861  -33.306053 22.942941 18.751006  -32.271178 23.970826 18.757996  -26.355161 25.294563 27.350276  -27.6621255 26.608697 28.729177  -32.9962145 26.606558 23.397228  -26.0819285 27.0306325 21.8874395  -32.65156899999999 29.4658555 16.8825755  -33.6872855 29.500735 15.8119795  -30.863227 27.674297 24.462476  -29.5191425 29.453298 20.0275595  -32.2719785 27.0621335 15.6658885  -31.931798 31.938695 19.129506  -30.5501835 30.5268815 17.9229345  -31.9317665 30.8729575 20.1952755  -30.5507215 27.3621555 21.0871225  -29.48339 30.527815 18.988795  -29.4843465 28.429665 21.085988  -28.1406195 27.044197 19.815183  -28.1388735 28.075023 18.786103  -27.10655 29.099376 18.794074  -27.108296 28.06855 19.823154  -30.8646155 29.80794 22.3274445  -30.863871 28.7411505 23.3949785  -36.196109 25.538661 21.265229  -34.751081 24.240801 20.0081175  -34.753213 25.2698145 18.9769725  -35.130116 26.605664 21.26422  -35.1299745 27.67207 20.1979565  -36.19596749999999 26.605067 20.1989655  -32.649243 25.269093 21.0816645  -34.063153 26.606071 22.330777  -33.684118 24.241208 21.0746745  -32.271998 22.9412715 19.78673  -29.1706265 26.021125 19.808248  -34.0614445 24.4725785 24.4659775  -33.6838255 22.143722 23.1724525  -30.5482485 23.208956 25.242796  -31.9275615 24.473241 26.5991985  -27.1106105 26.009257 21.880133  -29.520144 27.3556825 22.1241735  -28.140049 26.014652 20.845299  -35.129146 25.539068 22.331786  -26.0778535 22.920348 26.0017985  -33.306499 21.9123515 19.7811495  -38.325232 23.40636 21.268407  -36.8559805 22.1395675 20.004451  -36.853436 21.109478 21.037085  -37.896169 21.1018555 20.001975  -37.467106 18.797351 18.735543  -36.4269175 19.835063 18.738019  -36.424373 18.8049735 19.770653  -35.38164 18.812596 20.805763  -35.3841845 19.8426855 19.773129  -35.386729 20.872775 18.740495  -38.326797 25.538216 19.134988  -36.856389 25.269562 16.8740495  -36.856459 24.23774 17.9058015  -37.8993275 24.234206 16.8664665  -37.471858 22.930196 14.597945  -36.4289195 23.965552 14.605528  -36.4289895 22.93373 15.63728  -35.386121 22.937264 16.676615  -35.386051 23.969086 15.644863  -35.385981 25.000908 14.613111  -35.791115 24.2379625 18.970922  -34.346087 22.9401025 17.7138105  -34.348219 23.969116 16.6826655  -35.7909035 26.3361905 16.8729065  -34.348149 25.000938 15.6509135  -34.3479995 26.0328515 14.619149  -37.2613115 26.6048445 19.133845  -38.3269935 26.604275 18.068732  -38.32719 27.670334 17.002476  -36.8565855 26.335621 15.8077935  -37.261508 27.6709035 18.067589  -35.7909735 25.3043685 17.9046585  -36.193781 23.406132 23.400088  -34.750363 22.143947 22.1056905  -34.7497705 21.1117385 23.1384915  -35.7877105 21.109364 22.1029255  -34.34429249999999 19.847179 20.808528  -37.2595065 23.406246 22.3342475  -38.3247715 22.340286 22.334942  -37.8969935 23.20208 17.900927  -37.46719 20.865944 16.666866  -36.4266555 21.901604 16.6717405  -37.469524 21.89807 15.6324055  -34.749917 23.1745365 21.075547  -35.127982 24.4728035 23.3992155  -35.790255 22.1394535 21.0702915  -34.346837 20.8772685 19.775894  -36.8556765 23.171812 18.972511  -38.3260145 24.472288 20.2016975  -37.896211 22.136152 18.9676365  -37.467148 19.8316475 17.7012045  -36.4269595 20.8693595 17.7036805  -35.791419 23.205718 20.002862  -37.2606705 24.4725105 21.266818  -35.386425 21.9050195 17.708555  -37.261453 25.5384385 20.2001085  -36.194945 24.4723965 22.3326585  -34.346391 21.907858 18.7457505  -40.454711 21.274873 21.270416  -37.8957085 20.0357815 21.06851  -38.9609085 20.036112 20.0029795  -39.3899715 22.3406165 21.2694115  -53.209403 17.023743 12.766854  -51.87598375 16.41443025 12.709586  -52.4070255 15.882791 12.7101835  -52.40705225000001 16.4149055 12.17804225  -51.6047015 15.806068 11.5892305  -51.073633 15.80559275 12.12077425  -51.60467475 15.2739535 12.12137175  -51.604648 14.741839 12.653513  -51.07360625 15.27347825 12.6529155  -50.5425645 15.8051175 12.652318  -52.67833450000001 17.02326775 13.29839775  -52.147266 17.0227925 13.8299415  -51.34491525 16.413955 13.24112975  -51.875957 15.88231575 13.24172725  -53.20937625000001 16.4916285 13.29899525  -53.2093495 15.959514 13.8311365  -52.40699875 15.3506765 13.24232475  -52.67830775 16.49115325 13.830539  -51.085129 17.021842 14.893029  -50.81384675 16.41347975 13.7726735  -51.3448885 15.8818405 13.773271  -51.6161975 17.02231725 14.36148525  -52.14723925 16.490678 14.36208275  -50 14.588393 10.411607  -50.27128225 15.19675525 11.5319625  -50.802324 14.665116 11.53256  -50.80235075 15.1972305 11.00041875  -50.81384675 15.89206275 14.2940905  -51.07360625 14.75206125 13.1743325  -50.5425645 15.2837005 13.173735  -50.5425645 14.7622835 13.695152  -50.27128225 14.15392125 12.5747965  -50.802324 14.143699 12.053977  -50.802324 13.622282 12.575394  -50 13.545559 11.454441  -50 14.066976 10.933024  -50.27128225 14.67533825 12.0533795  -55.333333 14.897436 12.769231  -55.333333 14.60271875 12.03481025  -53.99999975 14.004041 11.96682125  -53.99999975 14.82017525 12.179825  -52.66666650000001 14.7429145 11.590419  -53.99999975 13.70932375 11.2324005  -53.99999975 14.525458 11.44540425  -52.66666650000001 13.92678025 11.37741525  -52.66666650000001 13.110646 11.1644115  -55.333333 14.3080015 11.3003895  -53.99999975 14.29875825 12.701242  -52.66666650000001 14.2214975 12.111836  -51.33333325 13.8495195 10.78800925  -51.33333325 14.3709365 10.26659225  -51.33333325 14.66565375 11.001013  -52.66666650000001 14.44819725 10.85599825  -52.66666650000001 14.15348 10.1215775  -52.66666650000001 13.632063 10.6429945  -51.33333325 14.14423675 11.52243  -55.333333 13.718567 9.831548  -53.99999975 13.4146065 10.49797975  -53.99999975 13.9360235 9.976562749999999  -53.99999975 14.23074075 10.7109835  -55.333333 14.01328425 10.56596875  -55.333333 12.245306 7.074777  -54.66653275 12.30001525 8.2201425  -55.333333 12.17940525 8.36134625  -55.333333 12.61362125 7.763969749999999  -55.333333 12.9819365 8.453162499999999  -54.66653275 12.6683305 8.90933525  -55.333333 12.5477205 9.050539000000001  -55.333333 12.1135045 9.6479155  -54.66653275 12.2341145 9.506711750000001  -53.9997325 12.3547245 9.365508  -55.333333
[...]
<PointData  Scalars="p_O2"> 
<DataArray  type="Float64"  Name="p_O2"  format="ascii">9.9935459896201138e+01  9.9815013846249272e+01  9.9806183122068902e+01  9.9727271488430461e+01  9.9960583247389451e+01  9.9961368956378877e+01  9.9940948015238135e+01  9.9983047188002715e+01  9.9928185915738396e+01  9.9924019295362214e+01  9.9958500012574660e+01  9.9986067887296571e+01  9.9983827688169654e+01  1.0000386401015076e+02  9.9983973046670599e+01  9.9989079432723230e+01  1.0000758245103286e+02  9.9996439105445646e+01  9.9991657883783802e+01  9.9967557903845361e+01  9.9957828453417605e+01  9.9984771320239588e+01  9.9968174200470528e+01  9.9983552910577458e+01  9.9985565473915344e+01  9.9940742869352547e+01  9.9954740541347149e+01  9.9986740164278331e+01  9.9974176685494086e+01  9.9877177974520166e+01  9.9849106601032858e+01  9.9946017369200092e+01  9.9986168521964473e+01  9.9977862231917570e+01  9.9979237418721681e+01  9.9901633880412746e+01  9.9673992766719536e+01  9.9665739946818320e+01  9.9507185564504809e+01  9.9834160442242293e+01  9.9881338479727930e+01  9.9921967379894767e+01  9.9919852538142436e+01  9.9918513049202318e+01  9.9957534630228778e+01  9.9828337721241752e+01  9.9818086523652980e+01  9.9704239894209849e+01  9.9904509352095431e+01  9.9951744711369884e+01  9.9959486473555870e+01  9.9969824326127210e+01  9.9956191353114122e+01  9.9770361321413688e+01  9.9977705343822464e+01  9.9914225100249439e+01  9.9758540376479246e+01  9.9949076323464737e+01  9.9958635840588769e+01  9.9987811881979141e+01  9.9942235651875166e+01  9.9974049041141313e+01  9.9949538356411622e+01  9.9979263830216624e+01  9.9746281299228627e+01  9.9905054227772368e+01  9.9906016824088937e+01  9.9943035761198189e+01  9.9931905736761209e+01  9.9901068655419166e+01  9.9968252419623852e+01  9.9902529789384275e+01  9.9610976717138527e+01  9.9624991972996341e+01  9.9936525993102919e+01  9.9957686801495043e+01  9.9967179097258906e+01  9.9867033302315036e+01  9.9872343215800768e+01  9.9938217287781171e+01  9.9970554464796706e+01  9.9960737289803674e+01  9.9983099202662515e+01  9.9974738814568724e+01  9.9535624584623321e+01  9.9384181620811120e+01  9.9788994760602236e+01  9.9912103555518357e+01  9.9888843725375921e+01  9.9845179072251341e+01  9.9740832622420058e+01  9.9939113064250918e+01  9.9912891181201772e+01  9.9970256622227211e+01  9.9335705466476170e+01  9.9578842362250498e+01  9.9873849518838398e+01  9.9830465162008096e+01  9.9334287554155566e+01  9.9863313925480540e+01  9.9849610823356144e+01  9.9986453562462131e+01  9.9966584654647491e+01  9.9992266554353080e+01  9.9977807193146845e+01  9.9978428629377831e+01  9.9932039247216139e+01  9.9956690212202219e+01  9.9986379815284465e+01  9.9466800834826387e+01  9.9820295661239740e+01  9.9817327231761240e+01  9.9908838440395229e+01  9.9978329444579671e+01  9.9989410498132742e+01  9.9917534825007507e+01  9.9961452885494339e+01  9.9720149493651220e+01  9.9620195135903714e+01  9.9976967820666076e+01  9.9921867908259273e+01  9.9893165019703304e+01  9.9976502585306179e+01  9.9895665415068720e+01  9.9955013006266469e+01  9.9834562856514268e+01  9.9918042752138788e+01  9.9920953570919067e+01  9.9967429561601620e+01  9.9992862436445790e+01  9.9975945216815177e+01  9.9995933138913870e+01  9.9999016405252320e+01  9.9947278314006425e+01  9.9789534545186783e+01  9.9242909099452362e+01  9.9227856583568851e+01  9.9836183737226705e+01  9.9892063734265506e+01  9.9879832864139360e+01  9.9623926581407247e+01  9.9943967796881537e+01  9.9444640682852054e+01  9.9883167043897615e+01  9.9956051207393600e+01  9.9938871566912752e+01  9.9443196641128878e+01  9.9829748691947927e+01  9.9985874005510709e+01  9.9992761403719996e+01  9.9885703865225068e+01  9.9993264968658494e+01  9.9865942586082625e+01  9.9993390035230675e+01  9.9808981802421954e+01  9.9541279584176280e+01  9.8331390204702060e+01  9.8217396144445672e+01  9.7366748211819399e+01  9.9138873314037724e+01  9.9513390569536739e+01  9.9477726276078258e+01  9.9595041612942723e+01  9.9613005340487618e+01  9.9592990796127651e+01  9.9566064760496602e+01  9.8475939044997048e+01  9.8489047854727445e+01  9.7781084035061625e+01  9.9222800601278408e+01  9.9577298054863789e+01  9.9511055673279955e+01  9.9616362443589125e+01  9.9662618047668786e+01  9.9670497926531397e+01  9.8873603890760762e+01  9.9748477155696122e+01  9.9797738004215930e+01  9.9017936890623417e+01  9.9776065493742649e+01  9.9835626229368813e+01  9.9697895667041564e+01  9.9681837977432565e+01  9.9545354996959063e+01  9.8705306856752969e+01  9.9785081462231332e+01  9.8917375201932018e+01  9.9792904727492541e+01  9.9202929678344063e+01  9.9197559106077762e+01  9.8808914337888041e+01  9.9732345912184897e+01  9.9699720742828333e+01  9.9644393946366336e+01  9.7603710242457723e+01  9.9167399132705611e+01  9.9511401381036293e+01  9.9239523949754243e+01  9.9150357259951562e+01  9.9847586210922117e+01  9.8722949287145511e+01  9.9743850916011937e+01  9.8282646833767629e+01  9.9667477378661758e+01  9.7559135980075311e+01  9.9206654693872267e+01  9.9473823429005293e+01  9.8790222384385444e+01  9.9682709480616154e+01  9.9628155107363057e+01  9.9722515326804825e+01  9.9830974824712442e+01  9.9804920052907647e+01  9.8885615914234336e+01  9.7511981697351274e+01  9.6557125677419634e+01  9.9308141103478945e+01  8.8054603801872432e+01  6.2509703236193978e+01  6.1793040040376546e+01  6.1554315835606822e+01  4.1320349334493542e+01  4.3009454204710956e+01  4.4664480091724677e+01  4.0583669083203411e+01  4.2334780089747255e+01  4.5863257739271674e+01  8.7918352774839107e+01  8.8212604809507823e+01  6.3368330127461405e+01  6.1426566984212535e+01  8.8834596150536470e+01  8.8613888243000716e+01  6.2594574317848952e+01  8.7998493630137645e+01  8.8722662928670317e+01  6.3170527484488254e+01  6.1256037791637908e+01  8.8153349951257297e+01  8.7554681712556132e+01  7.4104848141977030e+01  5.8530729212569156e+01  4.5868191976967807e+01  4.4841137236296774e+01  6.3046146089874988e+01  4.1322842056142875e+01  4.7518325260210311e+01  4.6592342630959074e+01  6.0071314394404517e+01  4.6744484598510240e+01  4.3898472443746790e+01  7.6376576757528724e+01  7.6174191531212628e+01  6.5055310112490801e+01  9.5564027800188242e+01  9.0669144894453709e+01  5.7016384555233664e+01  6.4542430982525474e+01  4.7352079510798347e+01  5.0563624675684771e+01  5.6773213492497561e+01  4.6094375323425005e+01  4.3019017830658441e+01  8.5790776368104602e+01  6.5131623385044108e+01  4.8395943501623485e+01  3.2288267791875136e+01  3.9317829499599334e+01  3.5217241583586066e+01  4.4092473761879781e+01  3.9862059516967491e+01  4.1736317765294444e+01  3.3725861701733066e+01  7.8277755837611124e+01  4.6501978265274737e+01  4.7701566403607430e+01  5.1198020919182980e+01  8.3609542507139693e+01  4.0000000000000000e+01  4.2654981385097201e+01  5.8620679446915148e+01  5.5483039874428648e+01  7.0417110981375259e+01  4.9147848463954354e+01  7.0669729611192736e+01  6.9149807969844744e+01  5.0168866224019538e+01  4.2162530580237913e+01  4.0000000000000000e+01  4.2985229481410613e+01  5.6166605620798919e+01  4.0000000000000000e+01  4.0000000000000000e+01  3.9747856845097530e+01  4.0000000000000000e+01  4.0000000000000000e+01  4.0000000000000000e+01  4.0000000000000000e+01  4.0000000000000000e+01  4.3127865407903343e+01  3.9625104346258880e+01  4.0000000000000000e+01  4.0000000000000000e+01  4.0000000000000000e+01  5.7190183256875166e+01  5.3422608541880400e+01  7.8502305588528401e+01  7.6588668997967190e+01  4.0000000000000000e+01  4.0000000000000000e+01  4.0000000000000000e+01  4.0738897659212725e+01  4.4962482617582204e+01  4.1139662283692751e+01  4.1052992475544706e+01  4.0187026439330829e+01  4.2048767106270240e+01  3.9923641670540903e+01  3.9088650488456587e+01  4.1952785249452504e+01  4.5104190755967636e+01  4.0279553691581818e+01  3.9410875417031171e+01  3.8737892141416211e+01  3.9865114527732089e+01  4.0337946676603437e+01  3.9826804970831759e+01  3.9839632255609757e+01  3.9702795123909006e+01  3.9641892435083918e+01  4.0111438217629598e+01  4.0168201664828359e+01  3.9396040273159500e+01  3.9620026522276632e+01  3.9995777475432241e+01  3.9943974626628503e+01  4.0215113608623113e+01  3.9605474525455676e+01  3.9308842221891780e+01  4.2598657119450479e+01  4.1309638350678505e+01  4.0055086214229519e+01  4.1100928730629583e+01  4.1387110441030671e+01  4.1049398611006851e+01  4.4483907714414862e+01  8.0617766054922370e+01  4.6068928350172754e+01  5.4337238527490733e+01  5.4030243376571519e+01  5.7514585878339616e+01  4.6621484282854851e+01  4.7199931726776498e+01  4.5660708653865534e+01  4.3673708475482968e+01  4.2660785886852707e+01  4.0213993890136415e+01  4.0005753849363842e+01  4.0101435871924984e+01  4.3174553147301189e+01  3.9560181610168186e+01  4.0258819906709526e+01  3.8942367136551084e+01  3.9562135917198290e+01  4.0172070143651112e+01  4.0007257335373446e+01  5.0821410948846875e+01  4.5973073965347737e+01  4.3160304465410150e+01  4.5851212208155424e+01  5.4164648166196379e+01  4.4271312651844688e+01  3.8542835532000225e+01  4.0521093161090960e+01  3.5985909628119174e+01  3.6838980142205010e+01  3.8964511379024209e+01  3.8794170915467092e+01  9.8898423072958252e+01  9.6726921864317447e+01  9.5318412221947142e+01  9.4983366530808468e+01  9.8166482461776340e+01  9.9005827138279827e+01  9.8201481185000674e+01  9.8196335286030305e+01  9.8885873968293410e+01  5.8228852904723610e+01  7.0873566576570340e+01  5.4683524014152702e+01  5.6337054036071194e+01  7.1711022578272875e+01  8.0621505741107640e+01  6.8484468418524202e+01  7.8203014134869335e+01  7.9695532382772853e+01  7.8099090255314664e+01  6.7082395553595433e+01  7.6580178329928344e+01  6.3241689713772075e+01  5.6264162445643535e+01  7.8916107370398677e+01  7.9257248948282907e+01  6.6591944566064569e+01  5.4517298951007582e+01  6.1281808953186491e+01  6.6066961785712934e+01  6.1830031535432987e+01  5.1875357404144076e+01  5.5111894895603591e+01  4.7738603448418679e+01  4.9388393754844905e+01  4.8440153394103064e+01  4.4411253248517006e+01  4.2296539452039703e+01  4.2233553793580512e+01  4.0932549662977003e+01  4.9400486245928640e+01  5.2659570766331413e+01  4.7491282953354229e+01  4.0721040673254350e+01  4.1058716230425397e+01  4.2145256918613875e+01  6.6037652728542383e+01  6.6842103188078454e+01  6.5568102035368952e+01  5.2651411635797793e+01  6.0143743749137997e+01  5.5522824919123366e+01  5.6967946835621397e+01  6.0016146857564948e+01  5.9708970417567322e+01  8.9041544817564002e+01  8.9797504711001267e+01  6.9544677618016550e+01  6.8570299226358117e+01  8.9949715751447087e+01  9.0659845543991409e+01  9.1246698651745845e+01  7.0937227486579275e+01  8.9183072106109691e+01  8.9748128423795833e+01  6.9567789068116525e+01  9.0628266726275740e+01  9.1416165613740375e+01  7.1429712003952631e+01  9.1531364453326702e+01  9.0752594683068807e+01  9.1408537887431379e+01  7.1200752757872706e+01  7.0878414064052180e+01  9.0652070962435488e+01  9.1452310549176957e+01  8.2258014480445922e+01  6.9987122943015379e+01  6.9428448575815707e+01  6.9950248132174636e+01  4.0000000000000000e+01  4.4472185348660567e+01  4.0000000000000000e+01  4.0000000000000000e+01  4.0000000000000000e+01  4.2642082458430416e+01  4.0000000000000000e+01  4.0000000000000000e+01  4.1269776854606434e+01  4.1464324374633129e+01  5.5577678749522086e+01  5.7018690184826291e+01  7.0316750461725917e+01  4.9235837678815479e+01  4.0000000000000000e+01  4.4764494361650648e+01  4.0000000000000000e+01  4.0000000000000000e+01  5.3783126924326666e+01  8.9401998036705407e+01  6.8793534687554384e+01  6.7160608079172420e+01  6.7133179701845862e+01  5.4568961707213802e+01  5.9165298094238082e+01  5.5994043653103034e+01  5.6043282598099609e+01  5.9225832836723242e+01  6.2176683372199612e+01  8.9901184623251126e+01  9.0439994255801466e+01  7.1452940654950908e+01  6.9327005424706428e+01  9.2074632667298189e+01  7.4043123085506835e+01  7.3335770714373965e+01  7.1483962582697373e+01  5.9895929568443691e+01  6.3171996608532375e+01  6.3577757080946391e+01  9.1413949916340840e+01  8.2857728190901142e+01  8.6547008487087638e+01  6.9594426733690185e+01  6.8921484801590012e+01  7.0984382108317831e+01  7.0837625377064967e+01  8.3892947723442617e+01  6.8871094307296545e+01  8.6006465375556743e+01  8.8328205159536012e+01  7.1058350369040468e+01  7.0290616286579166e+01  7.2330139593059926e+01  3.7063664958216897e+01  3.8672217089541213e+01  4.1411129878565127e+01  4.2988597297177748e+01  4.8459251768020110e+01  4.4253062819588195e+01  4.1377766938251803e+01  3.7249632393204415e+01  4.0384478772763075e+01  4.1766314465754114e+01  9.8863498815573990e+01  9.8907141873127870e+01  9.4826727219020384e+01  9.8202336199001536e+01  7.6782771806088405e+01  8.9544560874601970e+01  7.2918240797104289e+01  9.1461802252070200e+01  9.1974179406266543e+01  9.2160767672759235e+01  6.6357611558680276e+01  7.5964614637362132e+01  9.1499089513999479e+01  8.7139817160810964e+01  9.1269868451078196e+01  8.8486298858650798e+01  7.4636795503534486e+01  8.7594838846748274e+01  7.5004876854296782e+01  8.9160491843063383e+01  9.1410497791784493e+01  9.3304129656980578e+01  9.2926020164804598e+01  7.7782402826265383e+01  9.3232310064976602e+01  9.0250352607194301e+01  8.8804314085877024e+01  6.2942766495892464e+01  6.2416518971448887e+01  8.8799896014594481e+01  8.9057451868130400e+01  9.2693878101688341e+01  8.9017536448284815e+01  8.9305130537295383e+01  6.4262087654835781e+01  6.2840012528256800e+01  4.7042946274093701e+01  4.5792275247232645e+01  8.8703846285119099e+01  6.2445059437994935e+01  8.9217238284933558e+01  6.4133979658283167e+01  6.3672189200784011e+01  6.4975495248685590e+01  5.0860803974820740e+01  4.7141974263624789e+01  5.0254624765799250e+01  4.9153223293333220e+01  4.4590007026553465e+01  4.2058707365009646e+01  8.8411744941187123e+01  6.4589917278123622e+01  6.5073326521833465e+01  8.8594465104321216e+01  8.9408467097859770e+01  6.5745280391105268e+01  8.9479830084235459e+01  8.9089770942298415e+01  8.8957965009604536e+01  6.6013854510354605e+01  8.9465938295914597e+01  8.9155213893528710e+01  9.0158237677574732e+01  8.9570006416273472e+01  8.9917999738991597e+01  6.6768293198980928e+01  8.8780869028597081e+01  6.5421409073893230e+01  6.5405073209311908e+01  8.9480633812026383e+01  5.0224460218683554e+01  5.8034011756886926e+01  6.8629034699372511e+01  9.4771200663792953e+01  8.7394459616698384e+01  9.5546509797617759e+01  9.5857387238566574e+01  8.6065611874194602e+01  8.3433719620216266e+01  8.7721637366402533e+01  9.5868490743214423e+01  9.6069814473083483e+01  9.6068648991905647e+01  9.6909952791312278e+01  9.6596623002645586e+01  9.6581244254328766e+01  8.8990895997227526e+01  8.9107209028716241e+01  9.0724723378211678e+01  8.7609668493310124e+01  8.5714218386059216e+01  9.2185248051171783e+01  8.2574345142257499e+01  9.3535978222692137e+01  9.4278864170208379e+01  7.9904401906141828e+01  7.6215448909415343e+01  8.2392781738150916e+01  9.4438830978310818e+01  9.4563644459164905e+01  9.4402198179437264e+01  9.2703477458403668e+01  8.0645843977497719e+01  9.4134952428493023e+01  9.3224518683087410e+01  9.3459131079842919e+01  9.4275752433568883e+01  8.1054830619458698e+01  9.5413334602222818e+01  9.5134765106954276e+01  9.5213928465567349e+01  8.4217155268685858e+01  9.8864334909069598e+01  9.2337102630696592e+01  6.4208506786762953e+01  6.8785297195381190e+01  5.1695141001237744e+01  5.6065588667547082e+01  6.1147448095011455e+01  5.0179851192069627e+01  4.7315327854480103e+01  8.6759804979204119e+01  3.7632097840461562e+01  3.7169075506063194e+01  3.7203164899703211e+01  4.4307242099165961e+01  4.4954680143026010e+01  4.7899846349636100e+01  5.0194129922425084e+01  5.2689149851217273e+01  4.9974069946629555e+01  8.5551548232519991e+01  9.4506591090813728e+01  8.5330040063601970e+01  8.4108052451284252e+01  8.6016091132003254e+01  8.4794413666704074e+01  8.4778693549375021e+01  8.2662612223317211e+01  7.9774699443164621e+01  8.2167464989843324e+01  8.4107414971295611e+01  9.5138917327202662e+01  8.7423273803278008e+01  9.5624121036106700e+01  8.7433800231410387e+01  9.5863239757324209e+01  9.6845753611152475e+01  9.6336906931835955e+01  8.9110386508569093e+01  9.5315217675400874e+01  9.5789697216352877e+01  8.7977907547468917e+01  9.6375092914770832e+01  9.6965506822519501e+01  8.9419659723115032e+01  9.6989172070287211e+01  9.6512103618887110e+01  9.6653583888000753e+01  8.8654736260701540e+01  9.6241593310057837e+01  8.8878868486307866e+01  9.6867435186230125e+01  9.4832369289129005e+01  8.6602032248009863e+01  8.4896038243397257e+01  8.6805920168363556e+01  6.3225392496502963e+01  6.3678589456094798e+01  7.3608720879713303e+01  6.6424994276948865e+01  8.8206485073925279e+01  8.6973867464326247e+01  7.1352611855303138e+01  7.3469989895423907e+01  7.3983807846156125e+01  8.9297191115308195e+01  8.9356008916400398e+01  8.9220402129411980e+01  7.2412051371831311e+01  7.6032608791087142e+01  7.5488050940095476e+01  9.1096930319099314e+01  9.1266009221582664e+01  9.2065772061842196e+01  7.3337104548967233e+01  9.1889832620087844e+01  9.2169222865229656e+01  9.1735362082087278e+01  7.5240799934867013e+01  9.1415609287284440e+01  8.9550871949276001e+01  5.0340640616106107e+01  8.6314891790196810e+01  8.6200955369606660e+01  7.8411533289293331e+01  8.4780904283436527e+01  8.2853448618388413e+01  7.7823392102580442e+01  8.2928791775879446e+01  5.0415326874259804e+01  5.2410903216494738e+01  6.8109189306265549e+01  1.0953262975928618e+02  6.3966659985562984e+01  6.5768358803259943e+01  8.9154234861644952e+01  4.0000000000000000e+01  4.0000000000000000e+01  4.4468675648672452e+01  4.2856718827910662e+01  4.1401348577826667e+01  3.9497303765706810e+01  4.0000000000000000e+01  5.6333548572712893e+01  6.8417095812005215e+01  4.0000000000000000e+01  4.0000000000000000e+01  4.0000000000000000e+01  4.1538631284832576e+01  4.0000000000000000e+01  4.0000000000000000e+01  4.0000000000000000e+01  4.0892378467930328e+01  3.8788904067348817e+01  3.9551921299007233e+01  4.0000000000000000e+01  4.0000000000000000e+01  4.0000000000000000e+01  4.0000000000000000e+01  4.0060032918155692e+01  3.9491196687516890e+01  4.0000000000000000e+01  4.2428252454291091e+01  3.9650490764855185e+01  4.0000000000000000e+01  4.0000000000000000e+01  4.0000000000000000e+01  3.9978319906060769e+01  3.9773331825222833e+01  3.9932244423566317e+01  3.9716521579213648e+01  4.0035505385402743e+01  4.0000000000000000e+01  4.0002428986268818e+01  4.0217683803484249e+01  3.9988768343513769e+01  4.0000000000000000e+01  4.3091411069011848e+01  4.0879235363533859e+01  4.0041617471657140e+01  4.0770703720676032e+01  4.2434877024990115e+01  4.0000000000000000e+01  5.7182359018805535e+01  4.8535086549442532e+01  5.2229555168620109e+01  7.0733390464076905e+01  7.8332859760958129e+01  5.6972718188865556e+01  6.0226369092177620e+01  4.3356647031969402e+01  5.4476532976459779e+01  4.3752510365692324e+01  4.0000000000000000e+01  4.0031986416496572e+01  4.0033397125825388e+01  3.9791688377076078e+01  3.9909516408214920e+01  4.0328973192811439e+01  3.9867111948791532e+01  4.0000000000000000e+01  4.0522310105021170e+01  4.0058783494844029e+01  4.1200009083914502e+01  4.0114788259701918e+01  7.2053346325787686e+01  7.4547812334830738e+01  7.1807531746307390e+01  6.0308069198538341e+01  6.1685532776599956e+01  6.4291076261302180e+01  6.7662279051222114e+01  6.5093255048885752e+01  9.1745411368216111e+01  9.1673412370870238e+01  7.2589274688327421e+01  7.5440541120672094e+01  7.6572494831359620e+01  7.5439165436710937e+01  6.9291551440636454e+01  6.6379599941204077e+01  6.9584421880505914e+01  9.2071828770402831e+01  8.8891691210859321e+01  7.1516097641577758e+01  7.4517593412977021e+01  7.3179087185923933e+01  8.9487654677022064e+01  6.9271279201118134e+01  9.1864416377601330e+01  7.4584131946233484e+01  7.6466714146315766e+01  7.7721836250706929e+01  5.6504600343148866e+01  5.5356689457003220e+01  4.7483738280846858e+01  4.8685249487450932e+01  7.1714370385280034e