<?xml version="1.0"?>
<VTKFile type="UnstructuredGrid"  version="0.1"  >
<UnstructuredGrid>
<Piece  NumberOfPoints="7018" NumberOfCells="26774">
<Points>
<DataArray  type="Float64"  NumberOfComponents="3"  format="ascii">40.440392 -38.31117 -4.248438  40.75992675 -37.053724 -3.18634925  40.008234 -35.820597 -3.171169  40.0150255 -36.8607555 -2.124219  41.504828 -37.24669249999999 -4.2484795  42.566556 -38.309337 -2.124107  41.503474 -38.3102535 -3.1862725  42.565398 -31.922041 8.512561  39.9891045 -31.6139625 7.396933000000001  40.437664 -32.985701 9.5766355  41.5018285 -31.921598 9.576574000000001  41.5012335 -32.986144 8.512622499999999  40.437069 -34.050247 8.512684  40.438259 -31.921155 10.640587  40.44188 -37.2477085 -5.310411500000001  40.443368 -36.184247 -6.372385  42.564172 -38.307596 2.128231  40.0138125 -37.9240925 -1.062095  41.0781075 -36.859839 -1.0620535  42.565364 -38.30846649999999 0.002062000000000008  41.501069 -39.37272 0.002020499999999981  41.0769155 -36.8589685 1.0641155  39.589659 -35.410341 0  41.502261 -39.3735905 -2.1241485  40.437966 -40.437844 -2.12419  42.56428 -36.179274 4.256445  41.068656 -34.760047 3.1712965  42.1124015 -33.715408 3.17219  42.114507 -34.75727 2.1282225  41.664734 -33.335266 0  40.618883 -33.338043 1.043074  41.6626285 -32.293404 1.0439675  41.660523 -31.251542 2.087935  40.6167775 -32.296181 2.0870415  39.573032 -33.34082 2.086148  40.439179 -39.37450699999999 -3.186314  42.564103 -40.435897 0  42.5653295 -39.372617 -1.0620535  43.6282055 -39.3717945 0  42.5641375 -39.3717465 1.0641155  41.5010345 -40.4368705 -1.062095  42.564674 -34.050772 6.384554  39.9974505 -32.653721 6.3488285  41.061615 -31.589618 6.348767  41.06125299999999 -32.6539835 5.2847635  41.5008715 -34.0505095 7.448619  42.565036 -32.9864065 7.4485575  39.557832 -31.257195 4.184973  41.0769695 -35.7948075 2.1282225  42.114453 -35.821431 1.0641155  42.564226 -37.243435 3.192338  40.6271965 -34.3728035 0  39.5813455 -34.3755805 1.043074  39.557542 -29.153459 -6.288998  39.5547225 -28.110415 -7.334861999999999  40.59970300000001 -27.070814 -7.3294835  41.06818 -29.4748065 -8.457013  39.551903 -27.067371 -8.380725999999999  41.068853 -33.695796 4.235351  40.6091775 -31.2543685 3.136454  39.565432 -32.2990075 3.1355605  29.79554 -40.447471 -12.756989  28.435247 -38.9557855 -11.608968  29.4729395 -38.959161 -10.5678995  28.435885 -40.00324000000001 -10.560875  27.07623 -39.559009 -8.364761  27.075592 -38.5115545 -9.412853999999999  28.1132845 -38.51493000000001 -8.3717855  29.150339 -37.470851 -8.37881  28.1126465 -37.46747550000001 -9.419878499999999  27.074954 -37.4641 -10.460947  27.666447 -31.934639 -23.398914  26.3559745 -29.4515035 -23.1925215  26.354124 -30.518162 -22.1277135  25.3271375 -30.5206865 -23.152176  27.6682975 -30.8679805 -24.463722  27.670148 -29.801322 -25.52853  25.328988 -29.454028 -24.216984  22.987828 -29.106734 -22.905438  24.0148145 -29.1042095 -21.8809755  25.041801 -29.101685 -20.856513  26.6014505 -30.8676285 -25.530921  26.5996 -31.934287 -24.466113  25.532753 -31.933935 -25.533312  24.2602905 -30.5203345 -24.219375  24.25753 -31.5612145 -23.181255  25.324377 -31.5615665 -22.114056  22.982307 -31.188494 -20.829198  22.9850675 -30.147614 -21.867318  24.012054 -30.1450895 -20.8428555  31.940885 -27.667883 -23.391232  29.517597 -27.3453965 -22.1370065  30.544873 -27.34402 -21.111107  30.5467935 -26.308122 -22.1450845  29.152702 -24.948361 -20.898937  28.1235055 -25.9856355 -20.890859  29.1507815 -25.984259 -19.8649595  29.148861 -27.020157 -18.830982  28.121585 -27.0215335 -19.8568815  27.094309 -27.02291 -20.882781  27.663651 -34.067139 -21.26921  26.349318 -32.6269645 -20.0237175  26.3446445 -33.672084 -18.9832715  27.374621 -32.626836 -18.998543  27.085591 -31.186533 -16.727876  25.0303115 -32.2319095 -17.737779  26.060288 -31.1866615 -17.7530505  26.0556145 -32.231781 -16.7126045  25.025638 -33.277029 -16.697333  25.034985 -31.18679 -18.778225  30.8721805 -28.734962 -23.3928575  29.803476 -29.802041 -23.394483  28.4488925 -28.4124755 -22.138632  29.4761685 -28.411099 -21.1127325  30.8744315 -27.6671555 -24.458413  28.4511435 -27.344669 -23.2041875  29.805727 -28.7342345 -24.4600385  29.807978 -27.666428 -25.525594  29.48034 -26.3073945 -23.2122655  34.075075 -25.533397 -23.391529  31.577671 -25.270848 -22.151481  32.644766 -24.203605 -22.1516295  32.6452515 -25.240453 -21.114296  33.00798 -26.60064 -23.3913805  31.5781565 -26.307696 -21.1141475  31.215428 -24.947509 -18.837063  31.2149425 -23.910661 -19.8743965  31.214457 -22.873813 -20.91173  40.453581 -29.797184 -12.749236  40.002742 -28.4322775 -10.564981  40.00096 -27.3902785 -11.608762  41.0668895 -27.366561 -10.5665495  41.5177285 -28.7314675 -12.7508045  39.548339 -24.983373 -10.468288  39.550121 -26.025372 -9.424506999999998  25.54829 -25.526223 -31.925487  23.222428 -25.2517885 -30.525783  25.545773 -26.594219 -30.8600075  24.479791 -26.5933575 -31.926852  23.411292 -27.660492 -31.928217  23.219911 -26.3197845 -29.4603035  22.153929 -26.318923 -30.527148  24.477274 -27.6613535 -30.8613725  25.543256 -27.662215 -29.794528  20.896566 -24.977354 -29.126079  31.927422 -38.319939 -12.752639  29.501188 -37.8920195 -11.606793  30.5388805 -37.895395 -10.5657245  30.861481 -39.383705 -12.754814  27.4226385 -29.451863 -22.125498  27.3822285 -28.412116 -23.2056555  28.736812 -29.8016815 -24.4615065  26.068055 -28.0622975 -20.869647  25.319827 -26.3177225 -27.3624505  24.253632 -26.316516 -28.4298515  24.263395 -27.348076 -27.3885285  26.609451 -27.6634215 -28.727127  27.675646 -27.664628 -27.659726  25.32959 -27.3492825 -26.3211275  22.983534 -27.033937 -24.982529  22.973771 -26.002377 -26.023852  22.964008 -24.970817 -27.065175  29.813426 -25.530034 -27.656539  27.379379 -25.2767815 -26.34384  28.448269 -24.2094845 -26.3422465  28.4520005 -25.2404 -25.3075995  28.744536 -26.597331 -27.6581325  27.3831105 -26.307697 -25.309193  27.090575 -24.950766 -22.95866  27.0868435 -23.9198505 -23.993307  27.083112 -22.888935 -25.027954  34.071853 -27.667902 -21.260245  32.6436405 -26.3077055 -20.048654  33.006369 -27.6678925 -22.3257385  34.073464 -26.6006495 -22.325887  36.201256 -27.667422 -19.131321  34.742816 -26.310173 -17.9470105  35.7851815 -25.275955 -17.938863  35.7853135 -26.315885 -16.898801  35.369371 -24.964348 -14.666281  34.3268735 -24.958636 -15.7144905  35.369239 -23.924418 -15.706343  35.369107 -22.884488 -16.746405  34.3267415 -23.918706 -16.7545525  33.284376 -24.952924 -16.7627  38.333484 -25.534165 -19.132351  36.8512955 -24.2093265 -17.939378  36.8514275 -25.2492565 -16.899316  37.26737 -26.6007935 -19.131836  31.930552 -34.065257 -17.004192  30.538696 -32.629247 -15.8320575  30.536262 -33.67349400000001 -14.7902445  31.5715985 -32.6323115 -14.796091  31.212645 -31.199366 -12.58799  29.144406 -32.237484 -13.61811  30.1797425 -31.1963015 -13.6239565  30.1773085 -32.2405485 -12.5821435  29.141972 -33.281731 -12.576297  29.14684 -31.193237 -14.659923  34.079532 -23.398003 -25.522465  31.5825215 -22.102765 -25.314714  31.5812955 -23.170393 -24.2483125  32.648684 -22.1033535 -24.247963  33.0133695 -23.3974145 -26.589216  33.0121435 -24.4650425 -25.5228145  31.944755 -25.532082 -25.523164  31.945981 -24.464454 -26.5895655  31.947207 -23.396826 -27.655967  31.217836 -20.808704 -22.973461  34.055904 -40.444042 -8.500054  31.6044875 -40.004172 -7.3913405  32.6426855 -38.9612125 -7.396102000000001  32.6469165 -40.0085905 -6.3444925  31.237929 -39.573139 -4.188931  30.1955 -39.5687205 -5.235779  31.233698 -38.525761 -5.2405405  31.229467 -37.478383 -6.29215  30.191269 -38.5213425 -6.2873885  29.153071 -39.564302 -6.282627  29.4706225 -36.8491365 -12.680241  30.5364845 -36.8479705 -11.615545  30.86156 -38.321105 -13.817335  29.795698 -38.322271 -14.882031  28.435326 -37.8931855 -12.671489  28.1102505 -36.420051 -10.469699  29.145547 -35.376002 -10.478451  29.4789165 -22.1056805 -27.415403  30.5444385 -22.106889 -26.348672  30.543278 -21.075487 -27.381235  30.881685 -23.3956175 -28.722698  29.816163 -23.394409 -29.789429  29.14167 -20.816952 -25.041377  27.680274 -25.528343 -29.791383  27.381693 -24.208639 -27.4096685  26.3476555 -24.2145495 -28.437795  27.375879 -23.1785285 -28.4455925  27.071484 -20.828714 -27.099802  27.077298 -21.8588245 -26.063878  26.0432605 -21.864735 -27.0920045  25.015037 -22.900756 -27.084207  26.0490745 -22.8948455 -26.0560805  31.932878 -31.934519 -19.132603  30.5403065 -30.5194015 -17.9402915  31.571096 -30.5219875 -16.9069165  30.539859 -31.563878 -16.896263  29.1472875 -30.1487605 -15.7039515  30.178077 -30.1513465 -14.6705765  31.209314 -29.109456 -14.68123  30.1785245 -29.10687 -15.714605  29.147735 -29.104284 -16.74798  29.797522 -34.065792 -19.136687  28.4415565 -32.6261625 -17.9322815  28.439285 -33.67202450000001 -16.8886905  29.472181 -32.6295145 -16.898305  27.0833195 -32.232395 -15.684285  28.1162155 -31.189885 -15.6938995  28.113944 -32.235747 -14.6503085  27.081048 -33.278257 -14.640694  29.5092345 -31.560526 -17.9302395  28.116663 -30.1454085 -16.737928  34.064397 -31.932511 -17.003092  31.6056185 -31.562874 -15.8315075  32.9986375 -31.933515 -18.0678475  32.9974745 -32.998884 -17.003642  31.931715 -32.999888 -18.0683975  34.059882 -36.191148 -12.74897  32.6400005 -33.677178 -12.6828215  33.70472 -33.675911 -11.6193685  32.638966 -34.741428 -11.619606  34.0609165 -35.126898 -13.8121855  35.125636 -35.125631 -12.7487325  36.19139 -34.060114 -12.748495  35.1266705 -34.061381 -13.811948  34.061951 -34.062648 -14.875401  31.21805 -33.291708 -10.490242  36.195125 -31.931148 -14.873727  34.7435805 -29.4609175 -14.795502  35.7804245 -29.488701 -13.7308745  34.742068 -30.526539 -13.7313925  36.19663749999999 -30.8655265 -15.9378365  36.19815 -29.799905 -17.001946  35.781937 -28.4230795 -14.794984  33.289011 -29.12193 -12.589058  34.3273675 -28.084092 -12.58854  35.365724 -27.046254 -12.588022  31.926499 -40.446107 -10.627394  30.538419 -38.958479 -9.503102  31.9269605 -39.3830229999999
[...]
<PointData  Scalars="p_O2"> 
<DataArray  type="Float64"  Name="p_O2"  format="ascii">1.0021199882947528e+02  1.0024463954207397e+02  1.0038923937738095e+02  1.0055189298785488e+02  1.0010287375159653e+02  9.9901287176616009e+01  1.0001922304772238e+02  9.9996846551556260e+01  1.0001711076930916e+02  1.0001584287738270e+02  9.9966514859994788e+01  1.0000940729480500e+02  1.0000637002121738e+02  9.9998090590074511e+01  1.0005266914302331e+02  1.0001952226740620e+02  1.0005893528574194e+02  9.9623766364547862e+01  9.9690599634023627e+01  9.9784057294021522e+01  9.9823318785114296e+01  9.9700110393028993e+01  9.9452572330169431e+01  9.9920019387565304e+01  9.9855494549557179e+01  1.0014012002743048e+02  1.0013132733778805e+02  1.0015658916731920e+02  1.0011721412788486e+02  9.9608583333435206e+01  1.0037008074618696e+02  1.0016743969030723e+02  9.9975708505855920e+01  9.9927057371138204e+01  9.9845987490041651e+01  1.0015321240265278e+02  9.9956266896282074e+01  1.0003739585715931e+02  1.0000143134423369e+02  9.9964227385862969e+01  1.0003428512464555e+02  1.0001780357623349e+02  1.0002684360621345e+02  1.0001180279375548e+02  1.0006488012695330e+02  9.9968958691823161e+01  1.0000942903903093e+02  9.9978994818968928e+01  1.0051368683686108e+02  9.9777675911605854e+01  1.0002222833145086e+02  9.9264567564550887e+01  1.0012467164916239e+02  9.9994688935795480e+01  9.9996283837312092e+01  1.0001202479460757e+02  1.0000771994798981e+02  9.9994713544113793e+01  1.0006202760049366e+02  1.0007674621058854e+02  1.0005026032193597e+02  1.0001262449899363e+02  1.0002858623155498e+02  1.0002490381691875e+02  1.0004637923277402e+02  1.0001587754492772e+02  9.9997432984658275e+01  1.0001219307964308e+02  1.0000780552036812e+02  1.0002121540327298e+02  1.0000929779533602e+02  1.0000264825277075e+02  1.0000417228454624e+02  1.0001108164225006e+02  1.0000866834326129e+02  1.0000331678788855e+02  1.0000110199760051e+02  1.0001976880362544e+02  1.0000805689021456e+02  1.0001561191540964e+02  1.0000009759534171e+02  1.0000100536045291e+02  9.9991754305168769e+01  9.9994548811915919e+01  1.0000466246093457e+02  1.0000262039879675e+02  1.0001931786750974e+02  1.0000918671248485e+02  9.9987668666745094e+01  9.9996756079569536e+01  9.9995340976248102e+01  9.9992796306688135e+01  9.9996540097520693e+01  9.9991838867308658e+01  9.9993372981226258e+01  9.9982920171377671e+01  1.0000663324663201e+02  9.9992946415231458e+01  1.0001883738549070e+02  9.9996402521043890e+01  1.0000024867587729e+02  1.0000796681908045e+02  1.0000835428146821e+02  1.0000811894093783e+02  1.0000122529922604e+02  9.9990674302329765e+01  1.0002057774834064e+02  9.9998266017679441e+01  1.0000349140575183e+02  1.0000136142724854e+02  1.0001600151873862e+02  9.9996028483380201e+01  9.9996381385269927e+01  9.9984805987605995e+01  9.9998218404016313e+01  9.9981919771114548e+01  1.0000245799227386e+02  9.9995636861383630e+01  9.9996072207515155e+01  9.9993462146990154e+01  9.9985522870097029e+01  9.9994236373250203e+01  9.9992659108531498e+01  1.0001410735360274e+02  9.9995661471563267e+01  1.0000290584004603e+02  1.0002094525721284e+02  1.0000405056255903e+02  9.9986543509349204e+01  1.0000520386679473e+02  1.0000936485146580e+02  1.0001648192945862e+02  1.0002667303844120e+02  9.9983983902453147e+01  9.9996895933820426e+01  1.0000561214962448e+02  1.0000325669061711e+02  1.0000821228949476e+02  9.9992562501931872e+01  1.0000279214720413e+02  1.0000452163174820e+02  1.0000273145274677e+02  9.9998552423375585e+01  1.0000226194922914e+02  9.9994089334554275e+01  9.9999888698538243e+01  1.0002126613034146e+02  1.0002136592575573e+02  9.9998959181915694e+01  1.0000367341337517e+02  1.0001273362140196e+02  9.9983874963208308e+01  9.9995436801410207e+01  9.9985154038820866e+01  9.9998330212224289e+01  1.0000121012548799e+02  1.0000109200728450e+02  9.9996295397263722e+01  9.9999314464855317e+01  9.9999413748087164e+01  9.9990281504105752e+01  9.9999381218834316e+01  9.9997781218951772e+01  9.9994069299285727e+01  1.0000424905390119e+02  9.9999683930370992e+01  1.0001148737359910e+02  9.9982949941481863e+01  9.9990157022043746e+01  1.0000463510735908e+02  9.9995744358050359e+01  9.9993658954246882e+01  9.9992397534032321e+01  9.9993613220250921e+01  9.9980411625635242e+01  9.9990058602549652e+01  9.9991350988617882e+01  9.9993262917990151e+01  9.9998809333239706e+01  9.9994043529721907e+01  1.0001970581436180e+02  1.0000215929935777e+02  9.9997158350931315e+01  9.9965672885359609e+01  1.0000763404256242e+02  9.9980783745295369e+01  9.9995602751261202e+01  1.0000883931695431e+02  1.0003201062007986e+02  9.9997884049617426e+01  9.9999307134214874e+01  1.0000280323882356e+02  1.0001146208031629e+02  1.0000052378250295e+02  9.9984863034170843e+01  1.0002067197296593e+02  1.0000282281479238e+02  1.0000151844026081e+02  1.0000344672251740e+02  1.0000207544350263e+02  1.0001849760554603e+02  9.9983193068803757e+01  1.0000782336084391e+02  1.0001236680441741e+02  1.0001104628146349e+02  1.0000632607857122e+02  9.9991512627716745e+01  1.0001025850438532e+02  1.0002047392325296e+02  1.0001213934096245e+02  1.0006831270093362e+02  1.0004548186397344e+02  1.0007856000466063e+02  9.9984536870548595e+01  1.0003735400026065e+02  1.0001417411061136e+02  1.0000438459379653e+02  1.0001125841234330e+02  1.0001095669089554e+02  1.0001318518180190e+02  1.0001166142499460e+02  9.9996852783099783e+01  9.9994415310324570e+01  1.0002047129132754e+02  1.0000673410255077e+02  1.0000511380542417e+02  9.9987585128923257e+01  1.0000473427745615e+02  1.0000144589058789e+02  1.0001259740124634e+02  1.0000093234913406e+02  1.0000624310111608e+02  1.0000445364164507e+02  1.0001427390384556e+02  1.0000785057158562e+02  9.9982077123639215e+01  1.0001091831052008e+02  1.0001089184518780e+02  1.0000748797419126e+02  1.0000229555190441e+02  9.9987384503191819e+01  9.9997531389759132e+01  9.9996502890480087e+01  9.9983750356994435e+01  1.0000143630661067e+02  9.9989473592791214e+01  1.0000182332345925e+02  9.9997143374879727e+01  1.0001961485336204e+02  9.9998818402115944e+01  9.9995339449323254e+01  1.0000357413639406e+02  1.0000603403615590e+02  1.0000766677552588e+02  9.9987846067376324e+01  1.0002269318120933e+02  1.0000092233657183e+02  1.0000451070100057e+02  1.0000320593619904e+02  1.0000043886313151e+02  9.9991109812812041e+01  1.0000334896653085e+02  9.9990142244144380e+01  9.9998937780124265e+01  1.0002357134198881e+02  1.0000075923405413e+02  9.9991256498813826e+01  1.0000198394915429e+02  1.0000132298416727e+02  1.0002334852329028e+02  1.0001228051913918e+02  9.9990547128208661e+01  9.9981814310395194e+01  9.9994441639001366e+01  1.0000420107075263e+02  9.9991192170246890e+01  9.9987103007518584e+01  9.9994989108298611e+01  9.9995293237604514e+01  9.9999422524672298e+01  9.9989967683451212e+01  9.9995989176488706e+01  1.0000949628894173e+02  9.9969880452054824e+01  1.0001076757925145e+02  1.0000448462024924e+02  1.0002906765591246e+02  1.0005044560028257e+02  9.9991512681762387e+01  1.0001246394653501e+02  1.0001972020222337e+02  1.0002862598340238e+02  1.0003022182835157e+02  9.9999303336734826e+01  1.0002254186106636e+02  1.0000864357015818e+02  9.9994690116596558e+01  9.9997295981400143e+01  1.0001694919833675e+02  1.0000242636109139e+02  9.9986980422163896e+01  1.0000831751016426e+02  9.9999746953152240e+01  1.0000766696865867e+02  1.0000509141561483e+02  9.9994161056182563e+01  1.0000216061780070e+02  9.9994055532961980e+01  9.9987491801745989e+01  1.0000258042590619e+02  1.0001259175560010e+02  1.0000012608701937e+02  1.0002191971606230e+02  9.9981502199920783e+01  9.9988739884199731e+01  9.9999991729296795e+01  1.0001045203440600e+02  1.0001491919439682e+02  1.0000359889412022e+02  9.9998043309096147e+01  9.9976280779577536e+01  9.9989648266055326e+01  9.9998542172859572e+01  9.9991846785388631e+01  9.9996132153895019e+01  1.0000000628350972e+02  1.0003167159009431e+02  9.9972877381411550e+01  9.9998125101315182e+01  9.9976229840045121e+01  1.0000949452367344e+02  1.0000810887599361e+02  1.0005195056819254e+02  9.9991744871295339e+01  1.0000002379645208e+02  1.0002999286029690e+02  1.0002722238668522e+02  1.0000343083401341e+02  9.9996403750314386e+01  9.9990761676748733e+01  1.0000707464542070e+02  1.0001289193068635e+02  1.0000942177935285e+02  1.0001250315991702e+02  9.9998573873111454e+01  9.9996412790945968e+01  9.9996708052427891e+01  1.0001191866784573e+02  1.0003229097728108e+02  1.0001545910995630e+02  1.0003767619352988e+02  1.0004524978686585e+02  1.0002406397998229e+02  1.0002000589616883e+02  1.0000452617423491e+02  9.9983029306338395e+01  1.0000492826338831e+02  9.9988308363526670e+01  9.9998310342577312e+01  1.0001158666351608e+02  1.0000445257188758e+02  1.0000956867555011e+02  9.9999921513265221e+01  9.9957774360093509e+01  1.0001051865130745e+02  9.9992923200634394e+01  1.0001728178316546e+02  1.0000747911077958e+02  9.9996368125318213e+01  9.9997412431519251e+01  1.0000046037931880e+02  1.0000344227076037e+02  1.0000473162234856e+02  9.9989055478416503e+01  1.0000388440129568e+02  1.0001297810710066e+02  1.0000229311771434e+02  9.9993896352802423e+01  1.0001271923783175e+02  1.0000073523181266e+02  1.0000641648708232e+02  1.0000995252579867e+02  1.0000919008175831e+02  1.0000507833069209e+02  9.9988708164797714e+01  1.0001998190850237e+02  1.0000527725199039e+02  1.0000127545263838e+02  1.0000418581620558e+02  1.0000272700613694e+02  1.0002051072536720e+02  9.9999486333327738e+01  1.0000778359723652e+02  9.9982082524185799e+01  9.9999336301677374e+01  1.0001022380338962e+02  1.0003992078124143e+02  1.0000932679272994e+02  1.0001263149168557e+02  1.0000930178954010e+02  9.9998589712673493e+01  9.9990583410157654e+01  1.0001556779710049e+02  9.9989229323869054e+01  9.9992333015587946e+01  9.9985240292240533e+01  1.0000319214240767e+02  9.9983286656046431e+01  1.0000320725931391e+02  1.0002222994209122e+02  1.0000246291531784e+02  9.9995084563602788e+01  1.0001154045964829e+02  1.0002846770223981e+02  9.9989080603624743e+01  1.0001602740539629e+02  1.0001483381163600e+02  1.0000211905482496e+02  9.9998401776139190e+01  9.9992774410871192e+01  1.0000185784429016e+02  1.0000973859368149e+02  9.9985779526382004e+01  9.9992261897421869e+01  9.9997484200435807e+01  9.9978854844074505e+01  1.0007287423986617e+02  1.0000569893841653e+02  9.9998625790028342e+01  1.0000144352865249e+02  1.0000455096965955e+02  1.0000665197502738e+02  1.0000957322869961e+02  1.0001819904129451e+02  1.0002071070548132e+02  9.9990373171291452e+01  9.9999667737366934e+01  1.0000916930543487e+02  9.9990666315516648e+01  9.9997662731626150e+01  1.0000955158978800e+02  1.0001084293153008e+02  1.0002103839749468e+02  9.9987877012402677e+01  1.0000736472512531e+02  9.9995441748682197e+01  9.9990983881197664e+01  1.0002044131661752e+02  1.0002567759723553e+02  1.0004887571751264e+02  1.0007347338077059e+02  1.0007418082419370e+02  1.0000550946978886e+02  1.0003001405722591e+02  1.0001638291038770e+02  9.9992803436937720e+01  9.9999952450408770e+01  1.0000761939155873e+02  1.0000573048578526e+02  1.0001387373510106e+02  1.0000419812988719e+02  1.0000013787458317e+02  9.9971664361273980e+01  9.9996111388140932e+01  1.0000319035997224e+02  9.9988530989943698e+01  9.9999067313675155e+01  1.0001696294976210e+02  9.9989621877978180e+01  1.0001334716248060e+02  1.0000829329580057e+02  1.0001135789063565e+02  9.9991389084349592e+01  1.0008009908009257e+02  1.0006372674673574e+02  9.9983620266348851e+01  1.0003335158115341e+02  1.0001854446904139e+02  1.0012097792919364e+02  1.0007676393166557e+02  1.0012052452432245e+02  9.9995481443253027e+01  1.0005182387671367e+02  1.0002587003937916e+02  1.0002436345784133e+02  1.0002403770862179e+02  1.0010298811072612e+02  1.0000552555968432e+02  1.0001411238442959e+02  1.0002468909296667e+02  9.9979990195316745e+01  9.9994539976800183e+01  1.0004918409407554e+02  1.0000536384687597e+02  1.0002515626345907e+02  1.0006953420056422e+02  1.0002844465539330e+02  1.0000270179864395e+02  9.9987691017155043e+01  1.0000881052359652e+02  1.0000980774578299e+02  1.0003724633764729e+02  9.9958664282221562e+01  9.9996186609293815e+01  1.0002629364598461e+02  9.9994821974641127e+01  9.9997628990693798e+01  9.9981794618136377e+01  1.0000062106811653e+02  1.0000850044240028e+02  1.0000369282716355e+02  9.9991317003949717e+01  9.9971164736572391e+01  9.9993698962568757e+01  9.9991655524985674e+01  9.9984708408387434e+01  9.9996753960764380e+01  9.9991600982055942e+01  9.9996712595118723e+01  9.9972152881986347e+01  1.0000614097277142e+02  1.0001797167194567e+02  1.0000174742483890e+02  9.9968160814454208e+01  1.0001401014840638e+02  9.9998232798106073e+01  1.0001291781429018e+02  1.0000085560181795e+02  1.0000226486822110e+02  9.9997349576356115e+01  1.0001269835764569e+02  1.0000674438383932e+02  9.9998722915924006e+01  1.0000166473491892e+02  1.0001536416942291e+02  9.9980645946321360e+01  9.9987294682027567e+01  9.9987989879687333e+01  1.0001584058838814e+02  9.9988316639010705e+01  9.9979254652281014e+01  9.9993745470020741e+01  1.0003017360060784e+02  9.9988103473785273e+01  1.0001086257612329e+02  9.9994448160258401e+01  1.0001382118564483e+02  9.9963514059562613e+01  1.0000275792129983e+02  9.9988480799840843e+01  1.0000905140381933e+02  9.9997422606855295e+01  1.0000552190860104e+02  9.9987512341264733e+01  9.9992948842749385e+01  9.9977572456649497e+01  1.0001577340081623e+02  9.9995421296779398e+01  1.0003588846758207e+02  9.9999434146873512e+01  9.9988683269359811e+01  1.0001627709191114e+02  1.0000947735771992e+02  1.0002090399414278e+02  9.9972215257625962e+01  9.9995281644859787e+01  1.0004300923708821e+02  9.9996513841074432e+01  9.9985124433481047e+01  1.0001032036966818e+02  1.0000443853707215e+02  1.0000040175489366e+02  1.0001675229489787e+02  9.9989297186962176e+01  1.0000288539603855e+02  1.0000762175987998e+02  1.0003539112873695e+02  1.0001284656443457e+02  9.9997344581665701e+01  1.0001200536832913e+02  9.9984716258576213e+01  9.9995029055355090e+01  9.9981293039904614e+01  9.9991583148417121e+01  9.9992299127607652e+01  1.0004802559644673e+02  1.0000537208117733e+02  9.9983949317105854e+01  9.9997305942506472e+01  9.9985875750520677e+01  9.9997998054778151e+01  1.0002433063398507e+02  1.0002201818757700e+02  1.0001060500742929e+02  9.9986579174606717e+01  9.9997436355816546e+01  1.0001005625471390e+02  1.0002420145441799e+02  9.9996631992919021e+01  9.9962450303651011e+01  1.0001017256449383e+02  1.0000140927757570e+02  1.0001092365836834e+02  1.0000335452523214e+02  1.0001431638902365e+02  1.0006260785403073e+02  1.0018189032444725e+02  1.0026551233476616e+02  1.0018338385325836e+02  1.0006009116302326e+02  1.0004891509311700e+02  1.0006862640668878e+02  1.0003557801827588e+02  1.0003017494756699e+02  9.9982198740229919e+01  1.0005103802174261e+02  9.9999913877788373e+01  1.0002204413752399e+02  1.0002883442730614e+02  1.0007089555849606e+02  1.0005127316057988e+02  9.9996678803656607e+01  1.0000950747055766e+02  1.0001085286622546e+02  9.9992291824818665e+01  1.0002107554015953e+02  9.9995134443536969e+01  1.0001620942356473e+02  1.0000938924398268e+02  1.0000671533102170e+02  9.9999857407749587e+01  9.9991598254319385e+01  1.0000547688659582e+02  1.0000760905634424e+02  1.0001150669913369e+02  1.0000453897984482e+02  1.0000039654240879e+02  9.9996938613961504e+01  1.0000944090440100e+02  9.9996879443626284e+01  1.0002634405353270e+02  9.9957080434729789e+01  9.9993337003797905e+01  9.9991209617653766e+01  9.9992210220909286e+01  1.0001054113099124e+02  9.9999840700698044e+01  9.9954483557804977e+01  1.0003483041880054e+02  1.0000176295941742e+02  9.9994306869474016e+01  9.9990217266431287e+01  9.9996494167912715e+01  1.0000603896164554e+02  1.0001361930150421e+02  1.0000866160988269e+02  9.9970073104151183e+01  9.9963711377255649e+01  1.0011661734433680e+02  1.0002097665110193e+02  1.0010911912528270e+02  1.0001177994762263e+02  1.0000481515716997e+02  1.0001790127016652e+02  9.9998221632954824e+01  1.0000405480680949e+02  9.9997998549000073e+01  1.0000807806440255e+02  1.0002592205283547e+02  1.0001164211048990e+02  1.0002191110145041e+02  9.9979202504179156e+01  9.9987977197220587e+01  9.9994905993282629e+01  1.0000444077530385e+02  1.0000269459250205e+02  1.0000186780562760e+02  1.0001282917265056e+02  1.0011628271135247e+02  1.0001324993734383e+02  1.0002862562096486e+02  1.0000466820493619e+02  9.9984238923327524e+01  1.0001396331790096e+02  1.0005647777291811e+02  1.0016721459605573e+02  1.0004037897025951e+02  1.0002497915118182e+02  1.0001727251652764e+02  9.9997591229398424e+01  9.9995348965417193e+01  1.0002346651683889e+02  9.9956939587207955e+01  1.0000391450384350e+02  9.9996635890116323e+01  1.0001020534386463e+02  9.9987653838401386e+01  1.0000105218078153e+02  9.9996861818282341e+01  1.0000246400304673e+02  9.9996120528119903e+01  1.0001217723614850e+02  9.9991418970143030e+01  1.0001783896110422e+02  9.9989309049239722e+01  9.9995772640984811e+01  9.9994031382838202e+01  9.9992339611573613e+01  9.9989315298715269e+01  1.0001585550103439e+02  1.0001312260273900e+02  1.0000435275813032e+02  9.9997133084035923e+01  1.0001301412364010e+02  9.9983644753958600e+01  9.9960795408803023e+01  1.0000205412728418e+02  1.0003419132590778e+02  1.0001514207679919e+02  9.9981518104870048e+01  9.9996529585642563e+01  1.0000388429386268e+02  9.9990727020507862e+01  1.0000721311302011e+02  1.0000617471910815e+02  9.9982003516475231e+01  1.0000245122905315e+02  1.0001106886276737e+02  9.9997102128023812e+01  1.0004761912790433e+02  1.0002599587580293e+02  9.9997067034423793e+01  1.0002493592693050e+02  1.0001382411364195e+02  1.0001930516285127e+02  9.9977303351344304e+01  1.0001111727058345e+02  9.9994803892807369e+01  1.0002937638525242e+02  9.9989715915541652e+01  1.0004136509092829e+02  9.9997939027108316e+01  1.0000266453288265e+02  1.0002224493726810e+02  1.0001898035367232e+02  1.0001862961304823e+02  9.9997368903015925e+01  1.0001243589203305e+02  9.9991921623178442e+01  1.0001610192969680e+02  9.9986032665872727e+01  1.0026127450244957e+02  1.0000467870579429e+02  9.9996874842364321e+01  1.0000358212723923e+02  1.0000450482399947e+02  1.0001920155020456e+02  1.0000061132874390e+02  9.9957956922354924e+01  1.0000749676717335e+02  9.9980324986459394e+01  9.9992202408827339e+01  1.0006975569151423e+02  9.9976710228027144e+01  1.0002842768762596e+02  1.0000406507811643e+02  1.0001085925702432e+02  1.0000365770679913e+02  1.0001646127939711e+02  1.0000000494923586e+02  1.0002901661968028e+02  1.0000835284236440e+02  1.0002279138858802e+02  1.0001265627274158e+02  9.9993875418653687e+01  1.0000210201949970e+02  9.9982961971047104e+01  9.9982247147121328e+01  1.0000934591142446e+02  9.9981083167776717e+01  9.9999321420766378e+01  1.0002032102378648e+02  9.9994720105983234e+01  1.0000927698486738e+02  9.9945153869703972e+01  9.9984624594013496e+01  9.9982580069487199e+01  1.0002131099742769e+02  9.9993587879033555e+01  9.9944787227745707e+01  1.0002923839359448e+02  9.9995493981401964e+01  1.0001751123739953e+02  9.9995948249211679e+01  1.0001589987083810e+02  1.0001007227836372e+02  9.9997717916373517e+01  1.0002946462831179e+02  1.0023858622222006e+02  1.0018124991137282e+02  1.0006180599940795e+02  1.0004744592554987e+02  1.0000743144154585e+02  1.0000621096624337e+02  1.0003543073037572e+02  1.0001095179468284e+02  9.9984942659570365e+01  1.0001339894899314e+02  1.0000338675243576e+02  1.0001788223253088e+02  9.9978118195818624e+01  9.9978433151567771e+01  9.9975267832275065e+01  1.0001242848873960e+02  9.9999203055123388e+01  1.0000534211902833e+02  1.0000154734628464e+02  1.0000509618498586e+02  1.0000987696593990e+02  1.0000574623349362e+02  9.9990721728965511e+01  1.0000770159727313e+02  1.0000766238206320e+02  1.0000935220726464e+02  1.0000847838488731e+02  1.0001004926729902e+02  9.9991384476860659e+01  1.0000383165339835e+02  9.9998655294025696e+01  1.0000314659925391e