<?xml version="1.0"?>
<VTKFile type="UnstructuredGrid"  version="0.1"  >
<UnstructuredGrid>
<Piece  NumberOfPoints="7777" NumberOfCells="36000">
<Points>
<DataArray  type="Float64"  NumberOfComponents="3"  format="ascii">0 0 0  2 0 0  4 0 0  6 0 0  8 0 0  10 0 0  12 0 0  14 0 0  16 0 0  18 0 0  20 0 0  22 0 0  24 0 0  26 0 0  28 0 0  30 0 0  32 0 0  34 0 0  36 0 0  38 0 0  40 0 0  42 0 0  44 0 0  46 0 0  48 0 0  50 0 0  52 0 0  54 0 0  56 0 0  58 0 0  60 0 0  62 0 0  64 0 0  66 0 0  68 0 0  70 0 0  72 0 0  74 0 0  76 0 0  78 0 0  80 0 0  82 0 0  84 0 0  86 0 0  88 0 0  90 0 0  92 0 0  94 0 0  96 0 0  98 0 0  100 0 0  102 0 0  104 0 0  106 0 0  108 0 0  110 0 0  112 0 0  114 0 0  116 0 0  118 0 0  120 0 0  122 0 0  124 0 0  126 0 0  128 0 0  130 0 0  132 0 0  134 0 0  136 0 0  138 0 0  140 0 0  142 0 0  144 0 0  146 0 0  148 0 0  150 0 0  152 0 0  154 0 0  156 0 0  158 0 0  160 0 0  162 0 0  164 0 0  166 0 0  168 0 0  170 0 0  172 0 0  174 0 0  176 0 0  178 0 0  180 0 0  182 0 0  184 0 0  186 0 0  188 0 0  190 0 0  192 0 0  194 0 0  196 0 0  198 0 0  200 0 0  0 1 0  2 1 0  4 1 0  6 1 0  8 1 0  10 1 0  12 1 0  14 1 0  16 1 0  18 1 0  20 1 0  22 1 0  24 1 0  26 1 0  28 1 0  30 1 0  32 1 0  34 1 0  36 1 0  38 1 0  40 1 0  42 1 0  44 1 0  46 1 0  48 1 0  50 1 0  52 1 0  54 1 0  56 1 0  58 1 0  60 1 0  62 1 0  64 1 0  66 1 0  68 1 0  70 1 0  72 1 0  74 1 0  76 1 0  78 1 0  80 1 0  82 1 0  84 1 0  86 1 0  88 1 0  90 1 0  92 1 0  94 1 0  96 1 0  98 1 0  100 1 0  102 1 0  104 1 0  106 1 0  108 1 0  110 1 0  112 1 0  114 1 0  116 1 0  118 1 0  120 1 0  122 1 0  124 1 0  126 1 0  128 1 0  130 1 0  132 1 0  134 1 0  136 1 0  138 1 0  140 1 0  142 1 0  144 1 0  146 1 0  148 1 0  150 1 0  152 1 0  154 1 0  156 1 0  158 1 0  160 1 0  162 1 0  164 1 0  166 1 0  168 1 0  170 1 0  172 1 0  174 1 0  176 1 0  178 1 0  180 1 0  182 1 0  184 1 0  186 1 0  188 1 0  190 1 0  192 1 0  194 1 0  196 1 0  198 1 0  200 1 0  0 2 0  2 2 0  4 2 0  6 2 0  8 2 0  10 2 0  12 2 0  14 2 0  16 2 0  18 2 0  20 2 0  22 2 0  24 2 0  26 2 0  28 2 0  30 2 0  32 2 0  34 2 0  36 2 0  38 2 0  40 2 0  42 2 0  44 2 0  46 2 0  48 2 0  50 2 0  52 2 0  54 2 0  56 2 0  58 2 0  60 2 0  62 2 0  64 2 0  66 2 0  68 2 0  70 2 0  72 2 0  74 2 0  76 2 0  78 2 0  80 2 0  82 2 0  84 2 0  86 2 0  88 2 0  90 2 0  92 2 0  94 2 0  96 2 0  98 2 0  100 2 0  102 2 0  104 2 0  106 2 0  108 2 0  110 2 0  112 2 0  114 2 0  116 2 0  118 2 0  120 2 0  122 2 0  124 2 0  126 2 0  128 2 0  130 2 0  132 2 0  134 2 0  136 2 0  138 2 0  140 2 0  142 2 0  144 2 0  146 2 0  148 2 0  150 2 0  152 2 0  154 2 0  156 2 0  158 2 0  160 2 0  162 2 0  164 2 0  166 2 0  168 2 0  170 2 0  172 2 0  174 2 0  176 2 0  178 2 0  180 2 0  182 2 0  184 2 0  186 2 0  188 2 0  190 2 0  192 2 0  194 2 0  196 2 0  198 2 0  200 2 0  0 3 0  2 3 0  4 3 0  6 3 0  8 3 0  10 3 0  12 3 0  14 3 0  16 3 0  18 3 0  20 3 0  22 3 0  24 3 0  26 3 0  28 3 0  30 3 0  32 3 0  34 3 0  36 3 0  38 3 0  40 3 0  42 3 0  44 3 0  46 3 0  48 3 0  50 3 0  52 3 0  54 3 0  56 3 0  58 3 0  60 3 0  62 3 0  64 3 0  66 3 0  68 3 0  70 3 0  72 3 0  74 3 0  76 3 0  78 3 0  80 3 0  82 3 0  84 3 0  86 3 0  88 3 0  90 3 0  92 3 0  94 3 0  96 3 0  98 3 0  100 3 0  102 3 0  104 3 0  106 3 0  108 3 0  110 3 0  112 3 0  114 3 0  116 3 0  118 3 0  120 3 0  122 3 0  124 3 0  126 3 0  128 3 0  130 3 0  132 3 0  134 3 0  136 3 0  138 3 0  140 3 0  142 3 0  144 3 0  146 3 0  148 3 0  150 3 0  152 3 0  154 3 0  156 3 0  158 3 0  160 3 0  162 3 0  164 3 0  166 3 0  168 3 0  170 3 0  172 3 0  174 3 0  176 3 0  178 3 0  180 3 0  182 3 0  184 3 0  186 3 0  188 3 0  190 3 0  192 3 0  194 3 0  196 3 0  198 3 0  200 3 0  0 4 0  2 4 0  4 4 0  6 4 0  8 4 0  10 4 0  12 4 0  14 4 0  16 4 0  18 4 0  20 4 0  22 4 0  24 4 0  26 4 0  28 4 0  30 4 0  32 4 0  34 4 0  36 4 0  38 4 0  40 4 0  42 4 0  44 4 0  46 4 0  48 4 0  50 4 0  52 4 0  54 4 0  56 4 0  58 4 0  60 4 0  62 4 0  64 4 0  66 4 0  68 4 0  70 4 0  72 4 0  74 4 0  76 4 0  78 4 0  80 4 0  82 4 0  84 4 0  86 4 0  88 4 0  90 4 0  92 4 0  94 4 0  96 4 0  98 4 0  100 4 0  102 4 0  104 4 0  106 4 0  108 4 0  110 4 0  112 4 0  114 4 0  116 4 0  118 4 0  120 4 0  122 4 0  124 4 0  126 4 0  128 4 0  130 4 0  132 4 0  134 4 0  136 4 0  138 4 0  140 4 0  142 4 0  144 4 0  146 4 0  148 4 0  150 4 0  152 4 0  154 4 0  156 4 0  158 4 0  160 4 0  162 4 0  164 4 0  166 4 0  168 4 0  170 4 0  172 4 0  174 4 0  176 4 0  178 4 0  180 4 0  182 4 0  184 4 0  186 4 0  188 4 0  190 4 0  192 4 0  194 4 0  196 4 0  198 4 0  200 4 0  0 5 0  2 5 0  4 5 0  6 5 0  8 5 0  10 5 0  12 5 0  14 5 0  16 5 0  18 5 0  20 5 0  22 5 0  24 5 0  26 5 0  28 5 0  30 5 0  32 5 0  34 5 0  36 5 0  38 5 0  40 5 0  42 5 0  44 5 0  46 5 0  48 5 0  50 5 0  52 5 0  54 5 0  56 5 0  58 5 0  60 5 0  62 5 0  64 5 0  66 5 0  68 5 0  70 5 0  72 5 0  74 5 0  76 5 0  78 5 0  80 5 0  82 5 0  84 5 0  86 5 0  88 5 0  90 5 0  92 5 0  94 5 0  96 5 0  98 5 0  100 5 0  102 5 0  104 5 0  106 5 0  108 5 0  110 5 0  112 5 0  114 5 0  116 5 0  118 5 0  120 5 0  122 5 0  124 5 0  126 5 0  128 5 0  130 5 0  132 5 0  134 5 0  136 5 0  138 5 0  140 5 0  142 5 0  144 5 0  146 5 0  148 5 0  150 5 0  152 5 0  154 5 0  156 5 0  158 5 0  160 5 0  162 5 0  164 5 0  166 5 0  168 5 0  170 5 0  172 5 0  174 5 0  176 5 0  178 5 0  180 5 0  182 5 0  184 5 0  186 5 0  188 5 0  190 5 0  192 5 0  194 5 0  196 5 0  198 5 0  200 5 0  0 6 0  2 6 0  4 6 0  6 6 0  8 6 0  10 6 0  12 6 0  14 6 0  16 6 0  18 6 0  20 6 0  22 6 0  24 6 0  26 6 0  28 6 0  30 6 0  32 6 0  34 6 0  36 6 0  38 6 0  40 6 0  42 6 0  44 6 0  46 6 0  48 6 0  50 6 0  52 6 0  54 6 0  56 6 0  58 6 0  60 6 0  62 6 0  64 6 0  66 6 0  68 6 0  70 6 0  72 6 0  74 6 0  76 6 0  78 6 0  80 6 0  82 6 0  84 6 0  86 6 0  88 6 0  90 6 0  92 6 0  94 6 0  96 6 0  98 6 0  100 6 0  102 6 0  104 6 0  106 6 0  108 6 0  110 6 0  112 6 0  114 6 0  116 6 0  118 6 0  120 6 0  122 6 0  124 6 0  126 6 0  128 6 0  130 6 0  132 6 0  134 6 0  136 6 0  138 6 0  140 6 0  142 6 0  144 6 0  146 6 0  148 6 0  150 6 0  152 6 0  154 6 0  156 6 0  158 6 0  160 6 0  162 6 0  164 6 0  166 6 0  168 6 0  170 6 0  172 6 0  174 6 0  176 6 0  178 6 0  180 6 0  182 6 0  184 6 0  186 6 0  188 6 0  190 6 0  192 6 0  194 6 0  196 6 0  198 6 0  200 6 0  0 0 1  2 0 1  4 0 1  6 0 1  8 0 1  10 0 1  12 0 1  14 0 1  16 0 1  18 0 1  20 0 1  22 0 1  24 0 1  26 0 1  28 0 1  30 0 1  32 0 1  34 0 1  36 0 1  38 0 1  40 0 1  42 0 1  44 0 1  46 0 1  48 0 1  50 0 1  52 0 1  54 0 1  56 0 1  58 0 1  60 0 1  62 0 1  64 0 1  66 0 1  68 0 1  70 0 1  72 0 1  74 0 1  76 0 1  78 0 1  80 0 1  82 0 1  84 0 1  86 0 1  88 0 1  90 0 1  92 0 1  94 0 1  96 0 1  98 0 1  100 0 1  102 0 1  104 0 1  106 0 1  108 0 1  110 0 1  112 0 1  114 0 1  116 0 1  118 0 1  120 0 1  122 0 1  124 0 1  126 0 1  128 0 1  130 0 1  132 0 1  134 0 1  136 0 1  138 0 1  140 0 1  142 0 1  144 0 1  146 0 1  148 0 1  150 0 1  152 0 1  154 0 1  156 0 1  158 0 1  160 0 1  162 0 1  164 0 1  166 0 1  168 0 1  170 0 1  172 0 1  174 0 1  176 0 1  178 0 1  180 0 1  182 0 1  184 0 1  186 0 1  188 0 1  190 0 1  192 0 1  194 0 1  196 0 1  198 0 1  200 0 1  0 1 1  2 1 1  4 1 1  6 1 1  8 1 1  10 1 1  12 1 1  14 1 1  16 1 1  18 1 1  20 1 1  22 1 1  24 1 1  26 1 1  28 1 1  30 1 1  32 1 1  34 1 1  36 1 1  38 1 1  40 1 1  42 1 1  44 1 1  46 1 1  48 1 1  50 1 1  52 1 1  54 1 1  56 1 1  58 1 1  60 1 1  62 1 1  64 1 1  66 1 1  68 1 1  70 1 1  72 1 1  74 1 1  76 1 1  78 1 1  80 1 1  82 1 1  84 1 1  86 1 1  88 1 1  90 1 1  92 1 1  94 1 1  96 1 1  98 1 1  100 1 1  102 1 1  104 1 1  106 1 1  108 1 1  110 1 1  112 1 1  114 1 1  116 1 1  118 1 1  120 1 1  122 1 1  124 1 1  126 1 1  128 1 1  130 1 1  132 1 1  134 1 1  136 1 1  138 1 1  140 1 1  142 1 1  144 1 1  146 1 1  148 1 1  150 1 1  152 1 1  154 1 1  156 1 1  158 1 1  160 1 1  162 1 1  164 1 1  166 1 1  168 1 1  170 1 1  172 1 1  174 1 1  176 1 1  178 1 1  180 1 1  182 1 1  184 1 1  186 1 1  188 1 1  190 1 1  192 1 1  194 1 1  196 1 1  198 1 1  200 1 1  0 2 1  2 2 1  4 2 1  6 2 1  8 2 1  10 2 1  12 2 1  14 2 1  16 2 1  18 2 1  20 2 1  22 2 1  24 2 1  26 2 1  28 2 1  30 2 1  32 2 1  34 2 1  36 2 1  38 2 1  40 2 1  42 2 1  44 2 1  46 2 1  48 2 1  50 2 1  52 2 1  54 2 1  56 2 1  58 2 1  60 2 1  62 2 1  64 2 1  66 2 1  68 2 1  70 2 1  72 2 1  74 2 1  76 2 1  78 2 1  80 2 1  82 2 1  84 2 1  86 2 1  88 2 1  90 2 1  92 2 1  94 2 1  96 2 1  98 2 1  100 2 1  102 2 1  104 2 1  106 2 1  108 2 1  110 2 1  112 2 1  114 2 1  116 2 1  118 2 1  120 2 1  122 2 1  124 2 1  126 2 1  128 2 1  130 2 1  132 2 1  134 2 1  136 2 1  138 2 1  140 2 1  142 2 1  144 2 1  146 2 1  148 2 1  150 2 1  152 2 1  154 2 1  156 2 1  158 2 1  160 2 1  162 2 1  164 2 1  166 2 1  168 2 1  170 2 1  172 2 1  174 2 1  176 2 1  178 2 1  180 2 1  182 2 1  184 2 1  186 2 1  188 2 1  190 2 1  192 2 1  194 2 1  196 2 1  198 2 1  200 2 1  0 3 1  2 3 1  4 3 1  6 3 1  8 3 1  10 3 1  12 3 1  14 3 1  16 3 1  18 3 1  20 3 1  22 3 1  24 3 1  26 3 1  28 3 1  30 3 1  32 3 1  34 3 1  36 3 1  38 3 1  40 3 1  42 3 1  44 3 1  46 3 1  48 3 1  50 3 1  52 3 1  54 3 1  56 3 1  58 3 1  60 3 1  62 3 1  64 3 1  66 3 1  68 3 1  70 3 1  72 3 1  74 3 1  76 3 1  78 3 1  80 3 1  82 3 1  84 3 1  86 3 1  88 3 1  90 3 1  92 3 1  94 3 1  96 3 1  98 3 1  100 3 1  102 3 1  104 3 1  106 3 1  108 3 1  110 3 1  112 3 1  114 3 1  116 3 1  118 3 1  120 3 1  122 3 1  124 3 1  126 3 1  128 3 1  130 3 1  132 3 1  134 3 1  136 3 1  138 3 1  140 3 1  142 3 1  144 3 1  146 3 1  148 3 1  150 3 1  152 3 1  154 3 1  156 3 1  158 3 1  160 3 1  162 3 1  164 3 1  166 3 1  168 3 1  170 3 1  172 3 1  174 3 1  176 3 1  178 3 1  180 3 1  182 3 1  184 3 1  186 3 1  188 3 1  190 3 1  192 3 1  194 3 1  196 3 1  198 3 1  200 3 1  0 4 1  2 4 1  4 4 1  6 4 1  8 4 1  10 4 1  12 4 1  14 4 1  16 4 1  18 4 1  20 4 1  22 4 1  24 4 1  26 4 1  28 4 1  30 4 1  32 4 1  34 4 1  36 4 1  38 4 1  40 4 1  42 4 1  44 4 1  46 4 1  48 4 1  50 4 1  52 4 1  54 4 1  56 4 1  58 4 1  60 4 1  62 4 1  64 4 1  66 4 1  68 4 1  70 4 1  72 4 1  74 4 1  76 4 1  78 4 1  80 4 1  82 4 1  84 4 1  86 4 1  88 4 1  90 4 1  92 4 1  94 4 1  96 4 1
[...]
<PointData  Scalars="f_48-1"> 
<DataArray  type="Float64"  Name="f_48-1"  format="ascii">4.5000000000000000e+01  4.4999049248714400e+01  4.4998096612643444e+01  4.4997145114742892e+01  4.4996211433299827e+01  4.4995326960843840e+01  4.4994490841424010e+01  4.4993661068157053e+01  4.4992835048284093e+01  4.4992061966156726e+01  4.4991349687598898e+01  4.4990703640901408e+01  4.4990153085785913e+01  4.4989701836557543e+01  4.4989313314551048e+01  4.4988962049365554e+01  4.4988626028719388e+01  4.4988282877908020e+01  4.4987929344113070e+01  4.4987562074548677e+01  4.4987178839337069e+01  4.4986777797183230e+01  4.4986341008506315e+01  4.4985878795551855e+01  4.4985424059757463e+01  4.4984970355057030e+01  4.4984500024585479e+01  4.4984015255850743e+01  4.4983522007585947e+01  4.4983028470116608e+01  4.4982529892616512e+01  4.4982012770248609e+01  4.4981479765876024e+01  4.4980939729500804e+01  4.4980400095796540e+01  4.4979859562424856e+01  4.4979303371618229e+01  4.4978732462235875e+01  4.4978163206456841e+01  4.4977588472570957e+01  4.4976980120515591e+01  4.4976327109633296e+01  4.4975639979331838e+01  4.4974927026537706e+01  4.4974187476801340e+01  4.4973409962878087e+01  4.4972570002629027e+01  4.4971643247626659e+01  4.4970613493394183e+01  4.4969471331585552e+01  4.4968221652480302e+01  4.4966877874505606e+01  4.4965437879759754e+01  4.4963881703975566e+01  4.4962182158632125e+01  4.4960297060782807e+01  4.4958174659086957e+01  4.4955774185348112e+01  4.4953049127508450e+01  4.4949925416693809e+01  4.4946327480053739e+01  4.4942196428900743e+01  4.4937481195413902e+01  4.4932141145825753e+01  4.4926115053302063e+01  4.4919292383446852e+01  4.4911569199691158e+01  4.4902878026441478e+01  4.4893139535066005e+01  4.4882241487490788e+01  4.4870063187185551e+01  4.4856497737183986e+01  4.4841429442740640e+01  4.4824707000463754e+01  4.4806176011076538e+01  4.4785683698591093e+01  4.4763068754410995e+01  4.4738190279075937e+01  4.4710891555638021e+01  4.4680988757212809e+01  4.4648322225586341e+01  4.4612733688298462e+01  4.4574053111628174e+01  4.4532117494719969e+01  4.4486736161416374e+01  4.4437691277700665e+01  4.4384786296903840e+01  4.4327834348311590e+01  4.4266648108454866e+01  4.4201048966815875e+01  4.4130863858564986e+01  4.4055912824823665e+01  4.3976063575362403e+01  4.3891221129249750e+01  4.3801246053455422e+01  4.3706014542857815e+01  4.3605483916294581e+01  4.3499584472622722e+01  4.3388209097708007e+01  4.3271261356226915e+01  4.3148481130096883e+01  4.5000000000000000e+01  4.4999036960350573e+01  4.4998087377579452e+01  4.4997149093543761e+01  4.4996219350600256e+01  4.4995328752218512e+01  4.4994487325806865e+01  4.4993662185469638e+01  4.4992838107987062e+01  4.4992063582231353e+01  4.4991352707583069e+01  4.4990708917410153e+01  4.4990158506967596e+01  4.4989706873722469e+01  4.4989318023773357e+01  4.4988965528610713e+01  4.4988628790179853e+01  4.4988285376989552e+01  4.4987931118208031e+01  4.4987563990612230e+01  4.4987180320810886e+01  4.4986778263649860e+01  4.4986343130215893e+01  4.4985882372124188e+01  4.4985426895951981e+01  4.4984972794736457e+01  4.4984502423100253e+01  4.4984018411400804e+01  4.4983526263295580e+01  4.4983032065864840e+01  4.4982532577646545e+01  4.4982015225097584e+01  4.4981482557129610e+01  4.4980943849825849e+01  4.4980404576210447e+01  4.4979863281600160e+01  4.4979307154982706e+01  4.4978736633123596e+01  4.4978167088391395e+01  4.4977591934691908e+01  4.4976983838382210e+01  4.4976331352402823e+01  4.4975644370214546e+01  4.4974931506137295e+01  4.4974191977903466e+01  4.4973414305251161e+01  4.4972574329686410e+01  4.4971647389597578e+01  4.4970617251450022e+01  4.4969475641684831e+01  4.4968227459775484e+01  4.4966884534173630e+01  4.4965444352025322e+01  4.4963887442868185e+01  4.4962186827626603e+01  4.4960301704034137e+01  4.4958180514030175e+01  4.4955779464248366e+01  4.4953051747505889e+01  4.4949926966491041e+01  4.4946329856482322e+01  4.4942199306343056e+01  4.4937483532858110e+01  4.4932141588705022e+01  4.4926114937274178e+01  4.4919295169598527e+01  4.4911574075637347e+01  4.4902880657228145e+01  4.4893137234520580e+01  4.4882237714240567e+01  4.4870065327131314e+01  4.4856504208430060e+01  4.4841430716859612e+01  4.4824700552120895e+01  4.4806168408829805e+01  4.4785683660182656e+01  4.4763076243028557e+01  4.4738194531807132e+01  4.4710886963325940e+01  4.4680980259087669e+01  4.4648319398773459e+01  4.4612740805703872e+01  4.4574061004043394e+01  4.4532115197391391e+01  4.4486727235668376e+01  4.4437686639904925e+01  4.4384789095282649e+01  4.4327839573663617e+01  4.4266647875836007e+01  4.4201043112522363e+01  4.4130858235421741e+01  4.4055914979914121e+01  4.3976066489861978e+01  4.3891219413346128e+01  4.3801242889194924e+01  4.3706015324688863e+01  4.3605486291579751e+01  4.3499588702927305e+01  4.3388221267096633e+01  4.3271298797217717e+01  4.3148686667768885e+01  4.5000000000000000e+01  4.4999037227929463e+01  4.4998088584780795e+01  4.4997149821038469e+01  4.4996224413458187e+01  4.4995331916744831e+01  4.4994483442954596e+01  4.4993660665475431e+01  4.4992844256271901e+01  4.4992068377445783e+01  4.4991358399380061e+01  4.4990718462663814e+01  4.4990168817240146e+01  4.4989714490442822e+01  4.4989325012270299e+01  4.4988972295471697e+01  4.4988635084555433e+01  4.4988292288897348e+01  4.4987937034682119e+01  4.4987568469836987e+01  4.4987184096023263e+01  4.4986780306453703e+01  4.4986346140179023e+01  4.4985888885335818e+01  4.4985433469142073e+01  4.4984977815791780e+01  4.4984507603442282e+01  4.4984025226162522e+01  4.4983535444777985e+01  4.4983040779340612e+01  4.4982538603619602e+01  4.4982020400259330e+01  4.4981488813226619e+01  4.4980952752746191e+01  4.4980415035652278e+01  4.4979872045176542e+01  4.4979314823651976e+01  4.4978745441359642e+01  4.4978176379215981e+01  4.4977600149813881e+01  4.4976991684348100e+01  4.4976340509559023e+01  4.4975654507903663e+01  4.4974941874382303e+01  4.4974202650420942e+01  4.4973424618053897e+01  4.4972583923357440e+01  4.4971656756987088e+01  4.4970626571787712e+01  4.4969485994763247e+01  4.4968240496783238e+01  4.4966899344986665e+01  4.4965458871300690e+01  4.4963901204783880e+01  4.4962198934413806e+01  4.4960312097960141e+01  4.4958192311452748e+01  4.4955792620582905e+01  4.4953061809460934e+01  4.4949933245259714e+01  4.4946334674306485e+01  4.4942204534504079e+01  4.4937491921030770e+01  4.4932150899020790e+01  4.4926118993634027e+01  4.4919295539349505e+01  4.4911577510302607e+01  4.4902889312092945e+01  4.4893145867528560e+01  4.4882240465702182e+01  4.4870066074993808e+01  4.4856508634267115e+01  4.4841437485584692e+01  4.4824707057566464e+01  4.4806169785401501e+01  4.4785678733699157e+01  4.4763074206617198e+01  4.4738198687557350e+01  4.4710892382552686e+01  4.4680984023492577e+01  4.4648319314095247e+01  4.4612741845849065e+01  4.4574070314453841e+01  4.4532126183179962e+01  4.4486732035924085e+01  4.4437687708207697e+01  4.4384788386665711e+01  4.4327840237967870e+01  4.4266652575963654e+01  4.4201046727994878e+01  4.4130855851195591e+01  4.4055912051059089e+01  4.3976069220687251e+01  4.3891220560357390e+01  4.3801240750991035e+01  4.3706021333826250e+01  4.3605494828610901e+01  4.3499591644668868e+01  4.3388232374642328e+01  4.3271342548258865e+01  4.3148798904750393e+01  4.5000000000000000e+01  4.4999037537792013e+01  4.4998089733264628e+01  4.4997147088564468e+01  4.4996225301672737e+01  4.4995338839198283e+01  4.4994483612128548e+01  4.4993659426544475e+01  4.4992846711347660e+01  4.4992071411764478e+01  4.4991364013250610e+01  4.4990728124217497e+01  4.4990179617420566e+01  4.4989722652951507e+01  4.4989331780305299e+01  4.4988979244827540e+01  4.4988642166105357e+01  4.4988299703368668e+01  4.4987943426690755e+01  4.4987573297613956e+01  4.4987187851363373e+01  4.4986782547199411e+01  4.4986349032791203e+01  4.4985894679503609e+01  4.4985440018156460e+01  4.4984983038927574e+01  4.4984512642658991e+01  4.4984032425747948e+01  4.4983545282133065e+01  4.4983050019773820e+01  4.4982544884273622e+01  4.4982025214070745e+01  4.4981494776200819e+01  4.4980961950496010e+01  4.4980426058127954e+01  4.4979881335882091e+01  4.4979322502633586e+01  4.4978753829659865e+01  4.4978185677269593e+01  4.4977608871689853e+01  4.4976999838020305e+01  4.4976349671810780e+01  4.4975664665174634e+01  4.4974952350385323e+01  4.4974213719601671e+01  4.4973435663710099e+01  4.4972594080459018e+01  4.4971666313409429e+01  4.4970636037048799e+01  4.4969496616613782e+01  4.4968253832856625e+01  4.4966914393403847e+01  4.4965473529351378e+01  4.4963915117925701e+01  4.4962211420121697e+01  4.4960322990288283e+01  4.4958204376731132e+01  4.4955806025665893e+01  4.4953072756190785e+01  4.4949940764762459e+01  4.4946339837403578e+01  4.4942208841148272e+01  4.4937499468061645e+01  4.4932161249344794e+01  4.4926125474604810e+01  4.4919296578784952e+01  4.4911578818678137e+01  4.4902895926926874e+01  4.4893155184002786e+01  4.4882246194098208e+01  4.4870068639226972e+01  4.4856510780130563e+01  4.4841440748132378e+01  4.4824714373822346e+01  4.4806176324757487e+01  4.4785677573985495e+01  4.4763070096501544e+01  4.4738197726469934e+01  4.4710895943031367e+01  4.4680990981819868e+01  4.4648323396712705e+01  4.4612742222889686e+01  4.4574074507355036e+01  4.4532134592773915e+01  4.4486739964254411e+01  4.4437694073146574e+01  4.4384790102993605e+01  4.4327838298463440e+01  4.4266653943380376e+01  4.4201050995347387e+01  4.4130857524536047e+01  4.4055910848242242e+01  4.3976070155233103e+01  4.3891220576297634e+01  4.3801236316733153e+01  4.3706022353659534e+01  4.3605502765034124e+01  4.3499597679717169e+01  4.3388242793547157e+01  4.3271389726685641e+01  4.3148886902968314e+01  4.5000000000000000e+01  4.4999039968137964e+01  4.4998091415283163e+01  4.4997138481946465e+01  4.4996226615219179e+01  4.4995348647752898e+01  4.4994487896109291e+01  4.4993659092194434e+01  4.4992846212394916e+01  4.4992071722653229e+01  4.4991369788267839e+01  4.4990737250918322e+01  4.4990187954386748e+01  4.4989728876279656e+01  4.4989337234923369e+01  4.4988984884592938e+01  4.4988647807967801e+01  4.4988305167631552e+01  4.4987948131700200e+01  4.4987577160233599e+01  4.4987190763375040e+01  4.4986784234028200e+01  4.4986351622606449e+01  4.4985899257734445e+01  4.4985444781506594e+01  4.4984987067511767e+01  4.4984516789912483e+01  4.4984038470579058e+01  4.4983553430684779e+01  4.4983057288341726e+01  4.4982549575018822e+01  4.4982028820191474e+01  4.4981499493444645e+01  4.4980969484229071e+01  4.4980435014331107e+01  4.4979888693982694e+01  4.4979328502086176e+01  4.4978760251576553e+01  4.4978192615000317e+01  4.4977615519389303e+01  4.4977006369413374e+01  4.4976357076864879e+01  4.4975672771759960e+01  4.4974960558249023e+01  4.4974222294775075e+01  4.4973444338880263e+01  4.4972602166837767e+01  4.4971673841410684e+01  4.4970643487012623e+01  4.4969505214941407e+01  4.4968264710242821e+01  4.4966926398128834e+01  4.4965484838628328e+01  4.4963925551950744e+01  4.4962220778576715e+01  4.4960331492875952e+01  4.4958213937512667e+01  4.4955816177618331e+01  4.4953080631335574e+01  4.4949946334964586e+01  4.4946344102076822e+01  4.4942212112924608e+01  4.4937504263865456e+01  4.4932168046135693e+01  4.4926130536246198e+01  4.4919298700572440e+01  4.4911580635870401e+01  4.4902899741077221e+01  4.4893159925036784e+01  4.4882249836047031e+01  4.4870072348325749e+01  4.4856513486747012e+01  4.4841440647559693e+01  4.4824715909455115e+01  4.4806180178547287e+01  4.4785679367744180e+01  4.4763069896524968e+01  4.4738196047990265e+01  4.4710894613803610e+01  4.4680993667936093e+01  4.4648328024121973e+01  4.4612745460609908e+01  4.4574076695323654e+01  4.4532136301996680e+01  4.4486742401601099e+01  4.4437699003873554e+01  4.4384794296577319e+01  4.4327838186967888e+01  4.4266652579363843e+01  4.4201050883222202e+01  4.4130857896865592e+01  4.4055911944651669e+01  4.3976071150008579e+01  4.3891219874580628e+01  4.3801234956362173e+01  4.3706022033063540e+01  4.3605503757115066e+01  4.3499599984257962e+01  4.3388251357310189e+01  4.3271426799765749e+01  4.3148973359928362e+01  4.5000000000000000e+01  4.4999043610877415e+01  4.4998106478268454e+01  4.4997153421103803e+01  4.4996236801671955e+01  4.4995359345888055e+01  4.4994491858603695e+01  4.4993657584858248e+01  4.4992844096278240e+01  4.4992072080139344e+01  4.4991373397555819e+01  4.4990742351933257e+01  4.4990192835809850e+01  4.4989732415332647e+01  4.4989340304383404e+01  4.4988988279609622e+01  4.4988651145955309e+01  4.4988308120366938e+01  4.4987950749561897e+01  4.4987579526545204e+01  4.4987192432984777e+01  4.4986784848623998e+01  4.4986352624837629e+01  4.4985901558837142e+01  4.4985447321687822e+01  4.4984989169472762e+01  4.4984519134690778e+01  4.4984042028363270e+01  4.4983558066639738e+01  4.4983061267260439e+01  4.4982551814000928e+01  4.4982030325804416e+01  4.4981501855977378e+01  4.4980973671294500e+01  4.4980440033163646e+01  4.4979892624199159e+01  4.4979331493492673e+01  4.4978763547156646e+01  4.4978196344856400e+01  4.4977619091461698e+01  4.4977009758009778e+01  4.4976360852302676e+01  4.4975676952670341e+01  4.4974964917897552e+01  4.4974226966436127e+01  4.4973449055019032e+01  4.4972606456239632e+01  4.4971677667042378e+01  4.4970647129449759e+01  4.4969509453623729e+01  4.4968270234028864e+01  4.4966932630510868e+01  4.4965490766295076e+01  4.4963930907947216e+01  4.4962225504108815e+01  4.4960335967098551e+01  4.4958219146267865e+01  4.4955821652738230e+01  4.4953084712756343e+01  4.4949948942622164e+01  4.4946345910657868e+01  4.4942213304229142e+01  4.4937506001118358e+01  4.4932170786569486e+01  4.4926132491591488e+01  4.4919299327723678e+01  4.4911581369495401e+01  4.4902901009656908e+01  4.4893160773103368e+01  4.4882250219349608e+01  4.4870073726866643e+01  4.4856514819815629e+01  4.4841439554728055e+01  4.4824714351518189e+01  4.4806179849481154e+01  4.4785679140381859e+01  4.4763069564202027e+01  4.4738194241534536e+01  4.4710891375482106e+01  4.4680991965129643e+01  4.4648328541040250e+01  4.4612746918793974e+01  4.4574076772144437e+01  4.4532134381695393e+01  4.4486741019478771e+01  4.4437699470829060e+01  4.4384795287741781e+01  4.4327837765383919e+01  4.4266650556847530e+01  4.4201048740870370e+01  4.4130856151048185e+01  4.4055910964081399e+01  4.3976069553683118e+01  4.3891216562080686e+01  4.3801235412344106e+01  4.3706023005748094e+01  4.3605503742274323e+01  4.3499596890540523e+01  4.3388258883408454e+01  4.3271466593733322e+01  4.3149089405001895e+01  4.5000000000000000e+01  4.4999031194778752e+01  4.4998104639099651e+01  4.4997167208500258e+01  4.4996244930407599e+01  4.4995356695216159e+01  4.4994489977356267e+01  4.4993656400441516e+01  4.4992843888673093e+01  4.4992071880172062e+01  4.4991374836854945e+01  4.4990743423246720e+01  4.4990192282858729e+01  4.4989731835257729e+01  4.4989340097189000e+01  4.4988988650420417e+01  4.4988651827647452e+01  4.4988308601270752e+01  4.4987950880577934e+01  4.4987579786708110e+01  4.4987192553720824e+01  4.4986784197982800e+01  4.4986352041287844e+01  4.4985901217913593e+01  4.4985446978649968e+01  4.4984988824354112e+01  4.4984518788941770e+01  4.4984042283020422e+01  4.4983558986166749e+01  4.4983061633862853e+01  4.4982551069523026e+01  4.4982029105672737e+01  4.4981500854180268e+01  4.4980973727567459e+01  4.4980440713378634e+01  4.4979892530016087e+01  4.4979330666001509e+01  4.4978762593259098e+01  4.4978195641204110e+01  4.4977618775741234e+01  4.4977009409948963e+01  4.4976360395671513e+01  4.4975676397676672e+01  4.4974964127541945e+01  4.4974226374372456e+01  4.4973448810533334e+01  4.4972606120962446e+01  4.4971677116343336e+01  4.4970646399383291e+01  4.4969508603632946e+01  4.4968269535766296e+01  4.4966931966831936e+01  4.4965489709665718e+01  4.4963929528998143e+01  4.4962223965888938e+01  4.4960334457144022e+01  4.4958218379635170e+01  4.4955821416080028e+01  4.4953083789518750e+01  4.4949947518892948e+01  4.4946344563568722e+01  4.4942211487787176e+01  4.4937503995740101e+01  4.4932169085889072e+01  4.4926130506541483e+01  4.4919297128155044e+01  4.4911579375214224e+01  4.4902899216406098e+01  4.4893158582196293e+01  4.4882246846410347e+01  4.4870070937940213e+01  4.4856513257783561e+01  4.4841436551165586e+01  4.4824710591082919e+01  4.4806176571746583e+01  4.4785675510365991e+01  4.4763066739854601e+01  4.4738191248998376e+01  4.4710886780323143e+01  4.4680987322391360e+01  4.4648324244327441e+01  4.4612743697947607e+01  4.4574073818303340e+01  4.4532129127371505e+01  4.4486735285693292e+01  4.4437695868257464e+01  4.4384792356663823e+01  4.4327834318286314e+01  4.4266646791309071e+01  4.4201044820199598e+01  4.4130852930285215e+01  4.4055909054928151e+01  4.3976068087603899e+01  4.3891212157869859e+01  4.3801232198156995e+01  4.3706015790838208e+01  4.3605498331094530e+01  4.3499597671323507e+01  4.3388260702477666e+01  4.3271483981888693e+01  4.3149306124148012e+01  4.5000000000000000e+01  4.4999056287843608e+01  4.4998102361200857e+01  4.4997143755902400e+01  4.4996209172310301e+01  4.4995322959297731e+01  4.4994484654891558e+01  4.4993657001150957e+01  4.4992831255465333e+01  4.4992056844232728e+01  4.4991343672834368e+01  4.4990695879692296e+01  4.4990143538662579e+01  4.4989694434929845e+01  4.4989308631417920e+01  4.4988958060696923e+01  4.4988623846045883e+01  4.4988281593121108e+01  4.4987927320761308e+01  4.4987559584881495e+01  4.4987175173124477e+01  4.4986774558184756e+01  4.4986339191487382e+01  4.4985874750207572e+01  4.4985418709118385e+01  4.4984966455632659e+01  4.4984496040827167e+01  4.4984010553529878e+01  4.4983516484735482e+01  4.4983022152465999e+01  4.4982524176300537e+01  4.4982007085543920e+01  4.4981473405843055e+01  4.4980932875588614e+01  4.4980392571936882e+01  4.4979852552550838e+01  4.4979296879607460e+01  4.4978724698757794e+01  4.4978154748959298e+01  4.4977581292560345e+01  4.4976973658485093e+01  4.4976319169109296e+01  4.4975630530813767e+01  4.4974917337020166e+01  4.4974177710842866e+01  4.4973400485705589e+01  4.4972561300677924e+01  4.4971634954953778e+01  4.4970605307713875e+01  4.4969462493923871e+01  4.4968210780973649e+01  4.4966865188960533e+01  4.4965424781519232e+01  4.4963868404686707e+01  4.4962169087942385e+01  4.4960285480516795e+01  4.4958163668130027e+01  4.4955762685639677e+01  4.4953039379832347e+01  4.4949918168641283e+01  4.4946319789576492e+01  4.4942188200550063e+01  4.4937473648621442e+01  4.4932132647274031e+01  4.4926106043368392e+01  4.4919283986586322e+01  4.4911560202699825e+01  4.4902869694272837e+01  4.4893133826141600e+01  4.4882236296568919e+01  4.4870054102904312e+01  4.4856484826474222e+01  4.4841420582580625e+01  4.4824705194891713e+01  4.4806172988045162e+01  4.4785674668566976e+01  4.4763055976653270e+01  4.4738178787825710e+01  4.4710886931077312e+01  4.4680985868482153e+01  4.4648312052890397e+01  4.4612717431573365e+01  4.4574037726189509e+01  4.4532107334015294e+01  4.4486730420656130e+01  4.4437683926414060e+01  4.4384773956780194e+01  4.4327822607434463e+01  4.4266640992137738e+01  4.4201045767986848e+01  4.4130859851349641e+01  4.4055907147036180e+01  4.3976056283047662e+01  4.3891214547596384e+01  4.3801244508179508e+01  4.3706016197601052e+01  4.3605482711370769e+01  4.3499583643137548e+01  4.3388215566876738e+01  4.3271295409923830e+01  4.3148684074849349e+01  4.5000000000000000e+01  4.4999043338200373e+01  4.4998094208528137e+01  4.4997150054584836e+01  4.4996220669121783e+01  4.4995330315906074e+01  4.4994486055453002e+01  4.4993661004589775e+01  4.4992838981086862e+01  4.4992063765258088e+01  4.4991351956479697e+01  4.4990707612960577e+01  4.4990156190946799e+01  4.4989704658681049e+01  4.4989317518773547e+01  4.4988965348990952e+01  4.4988629423121374e+01  4.4988287124790048e+01  4.4987932260704291e+01  4.4987564397248740e+01  4.4987179509807774e+01  4.4986777037936