<?xml version="1.0"?>
<VTKFile type="UnstructuredGrid"  version="0.1"  >
<UnstructuredGrid>
<Piece  NumberOfPoints="7777" NumberOfCells="36000">
<Points>
<DataArray  type="Float64"  NumberOfComponents="3"  format="ascii">0 0 0  2 0 0  4 0 0  6 0 0  8 0 0  10 0 0  12 0 0  14 0 0  16 0 0  18 0 0  20 0 0  22 0 0  24 0 0  26 0 0  28 0 0  30 0 0  32 0 0  34 0 0  36 0 0  38 0 0  40 0 0  42 0 0  44 0 0  46 0 0  48 0 0  50 0 0  52 0 0  54 0 0  56 0 0  58 0 0  60 0 0  62 0 0  64 0 0  66 0 0  68 0 0  70 0 0  72 0 0  74 0 0  76 0 0  78 0 0  80 0 0  82 0 0  84 0 0  86 0 0  88 0 0  90 0 0  92 0 0  94 0 0  96 0 0  98 0 0  100 0 0  102 0 0  104 0 0  106 0 0  108 0 0  110 0 0  112 0 0  114 0 0  116 0 0  118 0 0  120 0 0  122 0 0  124 0 0  126 0 0  128 0 0  130 0 0  132 0 0  134 0 0  136 0 0  138 0 0  140 0 0  142 0 0  144 0 0  146 0 0  148 0 0  150 0 0  152 0 0  154 0 0  156 0 0  158 0 0  160 0 0  162 0 0  164 0 0  166 0 0  168 0 0  170 0 0  172 0 0  174 0 0  176 0 0  178 0 0  180 0 0  182 0 0  184 0 0  186 0 0  188 0 0  190 0 0  192 0 0  194 0 0  196 0 0  198 0 0  200 0 0  0 1 0  2 1 0  4 1 0  6 1 0  8 1 0  10 1 0  12 1 0  14 1 0  16 1 0  18 1 0  20 1 0  22 1 0  24 1 0  26 1 0  28 1 0  30 1 0  32 1 0  34 1 0  36 1 0  38 1 0  40 1 0  42 1 0  44 1 0  46 1 0  48 1 0  50 1 0  52 1 0  54 1 0  56 1 0  58 1 0  60 1 0  62 1 0  64 1 0  66 1 0  68 1 0  70 1 0  72 1 0  74 1 0  76 1 0  78 1 0  80 1 0  82 1 0  84 1 0  86 1 0  88 1 0  90 1 0  92 1 0  94 1 0  96 1 0  98 1 0  100 1 0  102 1 0  104 1 0  106 1 0  108 1 0  110 1 0  112 1 0  114 1 0  116 1 0  118 1 0  120 1 0  122 1 0  124 1 0  126 1 0  128 1 0  130 1 0  132 1 0  134 1 0  136 1 0  138 1 0  140 1 0  142 1 0  144 1 0  146 1 0  148 1 0  150 1 0  152 1 0  154 1 0  156 1 0  158 1 0  160 1 0  162 1 0  164 1 0  166 1 0  168 1 0  170 1 0  172 1 0  174 1 0  176 1 0  178 1 0  180 1 0  182 1 0  184 1 0  186 1 0  188 1 0  190 1 0  192 1 0  194 1 0  196 1 0  198 1 0  200 1 0  0 2 0  2 2 0  4 2 0  6 2 0  8 2 0  10 2 0  12 2 0  14 2 0  16 2 0  18 2 0  20 2 0  22 2 0  24 2 0  26 2 0  28 2 0  30 2 0  32 2 0  34 2 0  36 2 0  38 2 0  40 2 0  42 2 0  44 2 0  46 2 0  48 2 0  50 2 0  52 2 0  54 2 0  56 2 0  58 2 0  60 2 0  62 2 0  64 2 0  66 2 0  68 2 0  70 2 0  72 2 0  74 2 0  76 2 0  78 2 0  80 2 0  82 2 0  84 2 0  86 2 0  88 2 0  90 2 0  92 2 0  94 2 0  96 2 0  98 2 0  100 2 0  102 2 0  104 2 0  106 2 0  108 2 0  110 2 0  112 2 0  114 2 0  116 2 0  118 2 0  120 2 0  122 2 0  124 2 0  126 2 0  128 2 0  130 2 0  132 2 0  134 2 0  136 2 0  138 2 0  140 2 0  142 2 0  144 2 0  146 2 0  148 2 0  150 2 0  152 2 0  154 2 0  156 2 0  158 2 0  160 2 0  162 2 0  164 2 0  166 2 0  168 2 0  170 2 0  172 2 0  174 2 0  176 2 0  178 2 0  180 2 0  182 2 0  184 2 0  186 2 0  188 2 0  190 2 0  192 2 0  194 2 0  196 2 0  198 2 0  200 2 0  0 3 0  2 3 0  4 3 0  6 3 0  8 3 0  10 3 0  12 3 0  14 3 0  16 3 0  18 3 0  20 3 0  22 3 0  24 3 0  26 3 0  28 3 0  30 3 0  32 3 0  34 3 0  36 3 0  38 3 0  40 3 0  42 3 0  44 3 0  46 3 0  48 3 0  50 3 0  52 3 0  54 3 0  56 3 0  58 3 0  60 3 0  62 3 0  64 3 0  66 3 0  68 3 0  70 3 0  72 3 0  74 3 0  76 3 0  78 3 0  80 3 0  82 3 0  84 3 0  86 3 0  88 3 0  90 3 0  92 3 0  94 3 0  96 3 0  98 3 0  100 3 0  102 3 0  104 3 0  106 3 0  108 3 0  110 3 0  112 3 0  114 3 0  116 3 0  118 3 0  120 3 0  122 3 0  124 3 0  126 3 0  128 3 0  130 3 0  132 3 0  134 3 0  136 3 0  138 3 0  140 3 0  142 3 0  144 3 0  146 3 0  148 3 0  150 3 0  152 3 0  154 3 0  156 3 0  158 3 0  160 3 0  162 3 0  164 3 0  166 3 0  168 3 0  170 3 0  172 3 0  174 3 0  176 3 0  178 3 0  180 3 0  182 3 0  184 3 0  186 3 0  188 3 0  190 3 0  192 3 0  194 3 0  196 3 0  198 3 0  200 3 0  0 4 0  2 4 0  4 4 0  6 4 0  8 4 0  10 4 0  12 4 0  14 4 0  16 4 0  18 4 0  20 4 0  22 4 0  24 4 0  26 4 0  28 4 0  30 4 0  32 4 0  34 4 0  36 4 0  38 4 0  40 4 0  42 4 0  44 4 0  46 4 0  48 4 0  50 4 0  52 4 0  54 4 0  56 4 0  58 4 0  60 4 0  62 4 0  64 4 0  66 4 0  68 4 0  70 4 0  72 4 0  74 4 0  76 4 0  78 4 0  80 4 0  82 4 0  84 4 0  86 4 0  88 4 0  90 4 0  92 4 0  94 4 0  96 4 0  98 4 0  100 4 0  102 4 0  104 4 0  106 4 0  108 4 0  110 4 0  112 4 0  114 4 0  116 4 0  118 4 0  120 4 0  122 4 0  124 4 0  126 4 0  128 4 0  130 4 0  132 4 0  134 4 0  136 4 0  138 4 0  140 4 0  142 4 0  144 4 0  146 4 0  148 4 0  150 4 0  152 4 0  154 4 0  156 4 0  158 4 0  160 4 0  162 4 0  164 4 0  166 4 0  168 4 0  170 4 0  172 4 0  174 4 0  176 4 0  178 4 0  180 4 0  182 4 0  184 4 0  186 4 0  188 4 0  190 4 0  192 4 0  194 4 0  196 4 0  198 4 0  200 4 0  0 5 0  2 5 0  4 5 0  6 5 0  8 5 0  10 5 0  12 5 0  14 5 0  16 5 0  18 5 0  20 5 0  22 5 0  24 5 0  26 5 0  28 5 0  30 5 0  32 5 0  34 5 0  36 5 0  38 5 0  40 5 0  42 5 0  44 5 0  46 5 0  48 5 0  50 5 0  52 5 0  54 5 0  56 5 0  58 5 0  60 5 0  62 5 0  64 5 0  66 5 0  68 5 0  70 5 0  72 5 0  74 5 0  76 5 0  78 5 0  80 5 0  82 5 0  84 5 0  86 5 0  88 5 0  90 5 0  92 5 0  94 5 0  96 5 0  98 5 0  100 5 0  102 5 0  104 5 0  106 5 0  108 5 0  110 5 0  112 5 0  114 5 0  116 5 0  118 5 0  120 5 0  122 5 0  124 5 0  126 5 0  128 5 0  130 5 0  132 5 0  134 5 0  136 5 0  138 5 0  140 5 0  142 5 0  144 5 0  146 5 0  148 5 0  150 5 0  152 5 0  154 5 0  156 5 0  158 5 0  160 5 0  162 5 0  164 5 0  166 5 0  168 5 0  170 5 0  172 5 0  174 5 0  176 5 0  178 5 0  180 5 0  182 5 0  184 5 0  186 5 0  188 5 0  190 5 0  192 5 0  194 5 0  196 5 0  198 5 0  200 5 0  0 6 0  2 6 0  4 6 0  6 6 0  8 6 0  10 6 0  12 6 0  14 6 0  16 6 0  18 6 0  20 6 0  22 6 0  24 6 0  26 6 0  28 6 0  30 6 0  32 6 0  34 6 0  36 6 0  38 6 0  40 6 0  42 6 0  44 6 0  46 6 0  48 6 0  50 6 0  52 6 0  54 6 0  56 6 0  58 6 0  60 6 0  62 6 0  64 6 0  66 6 0  68 6 0  70 6 0  72 6 0  74 6 0  76 6 0  78 6 0  80 6 0  82 6 0  84 6 0  86 6 0  88 6 0  90 6 0  92 6 0  94 6 0  96 6 0  98 6 0  100 6 0  102 6 0  104 6 0  106 6 0  108 6 0  110 6 0  112 6 0  114 6 0  116 6 0  118 6 0  120 6 0  122 6 0  124 6 0  126 6 0  128 6 0  130 6 0  132 6 0  134 6 0  136 6 0  138 6 0  140 6 0  142 6 0  144 6 0  146 6 0  148 6 0  150 6 0  152 6 0  154 6 0  156 6 0  158 6 0  160 6 0  162 6 0  164 6 0  166 6 0  168 6 0  170 6 0  172 6 0  174 6 0  176 6 0  178 6 0  180 6 0  182 6 0  184 6 0  186 6 0  188 6 0  190 6 0  192 6 0  194 6 0  196 6 0  198 6 0  200 6 0  0 0 1  2 0 1  4 0 1  6 0 1  8 0 1  10 0 1  12 0 1  14 0 1  16 0 1  18 0 1  20 0 1  22 0 1  24 0 1  26 0 1  28 0 1  30 0 1  32 0 1  34 0 1  36 0 1  38 0 1  40 0 1  42 0 1  44 0 1  46 0 1  48 0 1  50 0 1  52 0 1  54 0 1  56 0 1  58 0 1  60 0 1  62 0 1  64 0 1  66 0 1  68 0 1  70 0 1  72 0 1  74 0 1  76 0 1  78 0 1  80 0 1  82 0 1  84 0 1  86 0 1  88 0 1  90 0 1  92 0 1  94 0 1  96 0 1  98 0 1  100 0 1  102 0 1  104 0 1  106 0 1  108 0 1  110 0 1  112 0 1  114 0 1  116 0 1  118 0 1  120 0 1  122 0 1  124 0 1  126 0 1  128 0 1  130 0 1  132 0 1  134 0 1  136 0 1  138 0 1  140 0 1  142 0 1  144 0 1  146 0 1  148 0 1  150 0 1  152 0 1  154 0 1  156 0 1  158 0 1  160 0 1  162 0 1  164 0 1  166 0 1  168 0 1  170 0 1  172 0 1  174 0 1  176 0 1  178 0 1  180 0 1  182 0 1  184 0 1  186 0 1  188 0 1  190 0 1  192 0 1  194 0 1  196 0 1  198 0 1  200 0 1  0 1 1  2 1 1  4 1 1  6 1 1  8 1 1  10 1 1  12 1 1  14 1 1  16 1 1  18 1 1  20 1 1  22 1 1  24 1 1  26 1 1  28 1 1  30 1 1  32 1 1  34 1 1  36 1 1  38 1 1  40 1 1  42 1 1  44 1 1  46 1 1  48 1 1  50 1 1  52 1 1  54 1 1  56 1 1  58 1 1  60 1 1  62 1 1  64 1 1  66 1 1  68 1 1  70 1 1  72 1 1  74 1 1  76 1 1  78 1 1  80 1 1  82 1 1  84 1 1  86 1 1  88 1 1  90 1 1  92 1 1  94 1 1  96 1 1  98 1 1  100 1 1  102 1 1  104 1 1  106 1 1  108 1 1  110 1 1  112 1 1  114 1 1  116 1 1  118 1 1  120 1 1  122 1 1  124 1 1  126 1 1  128 1 1  130 1 1  132 1 1  134 1 1  136 1 1  138 1 1  140 1 1  142 1 1  144 1 1  146 1 1  148 1 1  150 1 1  152 1 1  154 1 1  156 1 1  158 1 1  160 1 1  162 1 1  164 1 1  166 1 1  168 1 1  170 1 1  172 1 1  174 1 1  176 1 1  178 1 1  180 1 1  182 1 1  184 1 1  186 1 1  188 1 1  190 1 1  192 1 1  194 1 1  196 1 1  198 1 1  200 1 1  0 2 1  2 2 1  4 2 1  6 2 1  8 2 1  10 2 1  12 2 1  14 2 1  16 2 1  18 2 1  20 2 1  22 2 1  24 2 1  26 2 1  28 2 1  30 2 1  32 2 1  34 2 1  36 2 1  38 2 1  40 2 1  42 2 1  44 2 1  46 2 1  48 2 1  50 2 1  52 2 1  54 2 1  56 2 1  58 2 1  60 2 1  62 2 1  64 2 1  66 2 1  68 2 1  70 2 1  72 2 1  74 2 1  76 2 1  78 2 1  80 2 1  82 2 1  84 2 1  86 2 1  88 2 1  90 2 1  92 2 1  94 2 1  96 2 1  98 2 1  100 2 1  102 2 1  104 2 1  106 2 1  108 2 1  110 2 1  112 2 1  114 2 1  116 2 1  118 2 1  120 2 1  122 2 1  124 2 1  126 2 1  128 2 1  130 2 1  132 2 1  134 2 1  136 2 1  138 2 1  140 2 1  142 2 1  144 2 1  146 2 1  148 2 1  150 2 1  152 2 1  154 2 1  156 2 1  158 2 1  160 2 1  162 2 1  164 2 1  166 2 1  168 2 1  170 2 1  172 2 1  174 2 1  176 2 1  178 2 1  180 2 1  182 2 1  184 2 1  186 2 1  188 2 1  190 2 1  192 2 1  194 2 1  196 2 1  198 2 1  200 2 1  0 3 1  2 3 1  4 3 1  6 3 1  8 3 1  10 3 1  12 3 1  14 3 1  16 3 1  18 3 1  20 3 1  22 3 1  24 3 1  26 3 1  28 3 1  30 3 1  32 3 1  34 3 1  36 3 1  38 3 1  40 3 1  42 3 1  44 3 1  46 3 1  48 3 1  50 3 1  52 3 1  54 3 1  56 3 1  58 3 1  60 3 1  62 3 1  64 3 1  66 3 1  68 3 1  70 3 1  72 3 1  74 3 1  76 3 1  78 3 1  80 3 1  82 3 1  84 3 1  86 3 1  88 3 1  90 3 1  92 3 1  94 3 1  96 3 1  98 3 1  100 3 1  102 3 1  104 3 1  106 3 1  108 3 1  110 3 1  112 3 1  114 3 1  116 3 1  118 3 1  120 3 1  122 3 1  124 3 1  126 3 1  128 3 1  130 3 1  132 3 1  134 3 1  136 3 1  138 3 1  140 3 1  142 3 1  144 3 1  146 3 1  148 3 1  150 3 1  152 3 1  154 3 1  156 3 1  158 3 1  160 3 1  162 3 1  164 3 1  166 3 1  168 3 1  170 3 1  172 3 1  174 3 1  176 3 1  178 3 1  180 3 1  182 3 1  184 3 1  186 3 1  188 3 1  190 3 1  192 3 1  194 3 1  196 3 1  198 3 1  200 3 1  0 4 1  2 4 1  4 4 1  6 4 1  8 4 1  10 4 1  12 4 1  14 4 1  16 4 1  18 4 1  20 4 1  22 4 1  24 4 1  26 4 1  28 4 1  30 4 1  32 4 1  34 4 1  36 4 1  38 4 1  40 4 1  42 4 1  44 4 1  46 4 1  48 4 1  50 4 1  52 4 1  54 4 1  56 4 1  58 4 1  60 4 1  62 4 1  64 4 1  66 4 1  68 4 1  70 4 1  72 4 1  74 4 1  76 4 1  78 4 1  80 4 1  82 4 1  84 4 1  86 4 1  88 4 1  90 4 1  92 4 1  94 4 1  96 4 1
[...]
<PointData  Scalars="f_1206-1"> 
<DataArray  type="Float64"  Name="f_1206-1"  format="ascii">4.5000000000000000e+01  -1.7613119969582882e+00  1.5469575030701535e-01  -1.5112698727439543e-02  1.5908145119627737e-03  -1.7311323740140609e-04  2.0562397913037498e-05  -1.3436761168881027e-06  1.0436245005078293e-06  6.6660957384537488e-07  6.1946678712265807e-07  5.4359857867163604e-07  4.7986182140113844e-07  4.2251627314796758e-07  3.7134629530484341e-07  3.2578972080414502e-07  2.8530973548303441e-07  2.4939834470490593e-07  2.1764069945632521e-07  1.8959379979768302e-07  1.6486431882112989e-07  1.4309298099718786e-07  1.2393879295602448e-07  1.0715643816133199e-07  9.2494299847531883e-08  7.9669155009552285e-08  6.8468377923306801e-08  5.8718555984791089e-08  5.0249241485181229e-08  4.2907992761152251e-08  3.6552210781219456e-08  3.1059065245940792e-08  2.6326843979711772e-08  2.2260811695240374e-08  1.8775473299317782e-08  1.5793490043035010e-08  1.3246588446751303e-08  1.1078856930115719e-08  9.2398472113550983e-09  7.6820859268856081e-09  6.3655857991930978e-09  5.2575560611568547e-09  4.3285072662591394e-09  3.5515659454320712e-09  2.9036502929549094e-09  2.3649872984790987e-09  1.9185635834499841e-09  1.5500553135755890e-09  1.2471784970108556e-09  9.9927065250564154e-10  7.9724499290125589e-10  6.3329794793887317e-10  5.0071075594205302e-10  3.9388575103009635e-10  3.0820101985001543e-10  2.3978999046368831e-10  1.8546971276127647e-10  1.4261349199693872e-10  1.0898572568051170e-10  8.2731377786888123e-11  6.2371989455103391e-11  4.6700392963259498e-11  3.4719710937115098e-11  2.5625750299519239e-11  1.8766183082549527e-11  1.3623930776350578e-11  9.8036455718857518e-12  6.9931112763617528e-12  4.9420821453041210e-12  3.4573305295767803e-12  2.3927150219903069e-12  1.6376255261245864e-12  1.1077933481665711e-12  7.3992260106360182e-13  4.8762426321774673e-13  3.1683778303166083e-13  2.0278656576849173e-13  1.2776473131602496e-13  7.9146595921387452e-14  4.8132568555661818e-14  2.8703360268906168e-14  1.6757728354104566e-14  9.5605787606015055e-15  5.3204561262664550e-15  2.8802407202341121e-15  1.5121892445788847e-15  7.6805200363268234e-16  3.7622936287956744e-16  1.7705662151184362e-16  7.9698246834739018e-17  3.4128621100438161e-17  1.3813548046844763e-17  5.2482690270523898e-18  1.8553659672243931e-18  6.0237314157040637e-19  1.7682442638191266e-19  4.6043261606440837e-20  1.0321379649975339e-20  1.8974191339088533e-21  2.6289746718814902e-22  2.9232210669177129e-23  4.5000000000000000e+01  -3.5660841590004928e+00  2.6667535515190322e-01  -2.5632890995636884e-02  2.6741654636077456e-03  -2.9049419097357173e-04  3.3647671081782888e-05  -2.8278579432592777e-06  1.2139892141886298e-06  6.4691181378853270e-07  6.2178881740067211e-07  5.4337255469960340e-07  4.7992800002934057e-07  4.2254710243847609e-07  3.7137343749707964e-07  3.2580237227106838e-07  2.8531624067613376e-07  2.4939969609022537e-07  2.1763781106149362e-07  1.8959264358198421e-07  1.6486233522956515e-07  1.4309061808459870e-07  1.2394080899108128e-07  1.0715896697381157e-07  9.2495195381272083e-08  7.9669897030534500e-08  6.8468735846329110e-08  5.8719447493889498e-08  5.0250354112651971e-08  4.2908182925994869e-08  3.6552172093376049e-08  3.1059042958106370e-08  2.6326936796311662e-08  2.2261168675753453e-08  1.8775599121445291e-08  1.5793407743009422e-08  1.3246579078152561e-08  1.1078843421890583e-08  9.2397626415784411e-09  7.6819724269459577e-09  6.3654859275285696e-09  5.2574573313398689e-09  4.3284043869670686e-09  3.5514785458001221e-09  2.9035662920884110e-09  2.3649011381548753e-09  1.9184818242049119e-09  1.5499683345089416e-09  1.2470893747023352e-09  9.9920099595803398e-10  7.9719875399487385e-10  6.3326039101748036e-10  5.0067275363307293e-10  3.9384491866056210e-10  3.0816020660134338e-10  2.3975665473316445e-10  1.8544281096716443e-10  1.4258534494731735e-10  1.0895665488276524e-10  8.2706852724256115e-11  6.2353220352548688e-11  4.6685547831284531e-11  3.4706695084009019e-11  2.5613997020401353e-11  1.8757195051918312e-11  1.3617965708139353e-11  9.7991649684467146e-12  6.9890560674868270e-12  4.9383975407502711e-12  3.4545119144519846e-12  2.3909332386316546e-12  1.6364047859145707e-12  1.1067338722552846e-12  7.3900867802979067e-13  4.8695807358850583e-13  3.1642757715756765e-13  2.0252641882072849e-13  1.2756738924014379e-13  7.8993401216937367e-14  4.8023994199639825e-14  2.8635189900976158e-14  1.6716773945620136e-14  9.5335940545220848e-15  5.3018297844424059e-15  2.8682888456642013e-15  1.5051078211055145e-15  7.6399988509634497e-16  3.7392259235328242e-16  1.7574467560462867e-16  7.8982547110475363e-17  3.3761658475731678e-17  1.3635981286970060e-17  5.1652973033161965e-18  1.8186703045901566e-18  5.8723565121091968e-19  1.7106915196588005e-19  4.4051421921803008e-20  9.7053817040119230e-21  1.7315478975022946e-21  2.2474564333258688e-22  1.6181181741453530e-23  4.5000000000000000e+01  -4.5113487182033802e+00  4.2972351667539616e-01  -4.0909868617521224e-02  4.2951731206480256e-03  -4.6927455926019338e-04  5.3748460300309771e-05  -5.1147831669000808e-06  1.4766630097725514e-06  6.1663746052561369e-07  6.2539072470010174e-07  5.4305416978215194e-07  4.8005136771341662e-07  4.2258932810452198e-07  3.7141693315046722e-07  3.2583752448679034e-07  2.8534283574560890e-07  2.4942332935269427e-07  2.1765235885334887e-07  1.8960121226076799e-07  1.6486930215604393e-07  1.4309498994074728e-07  1.2394888300389716e-07  1.0717129493345853e-07  9.2504089846828360e-08  7.9675525609636296e-08  6.8474628620743579e-08  5.8726083742942421e-08  5.0256867647090653e-08  4.2912642309724169e-08  3.6554813866532581e-08  3.1061610701538447e-08  2.6329857179302405e-08  2.2264235649583452e-08  1.8778054589837555e-08  1.5794896945858382e-08  1.3247805099594473e-08  1.1080153370704383e-08  9.2408512234484945e-09  7.6826954820586351e-09  6.3660643251818904e-09  5.2580308180335992e-09  4.3288963618611557e-09  3.5518782413884470e-09  2.9038954742771071e-09  2.3651317945550181e-09  1.9186347694042715e-09  1.5500836275835890e-09  1.2471825164295835e-09  9.9929472743652463e-10  7.9729833811939224e-10  6.3333867201369580e-10  5.0071871616290517e-10  3.9386856952835407e-10  3.0816582053221646e-10  2.3975316596374613e-10  1.8544064394356298e-10  1.4257907287458656e-10  1.0894164476432924e-10  8.2689790276807251e-11  6.2338683481504998e-11  4.6674520489680457e-11  3.4699283188038135e-11  2.5607235346611595e-11  1.8749642362078564e-11  1.3611545602128083e-11  9.7949099873208495e-12  6.9861941355122887e-12  4.9359205159818582e-12  3.4522301035801893e-12  2.3891861474701081e-12  1.6351855882509591e-12  1.1058383245372933e-12  7.3832402463215013e-13  4.8640529973346918e-13  3.1600325256601859e-13  2.0224281353702858e-13  1.2738128296843212e-13  7.8864248690044348e-14  4.7933483775210319e-14  2.8572359894584028e-14  1.6675803680376340e-14  9.5080763156636580e-15  5.2853172635940213e-15  2.8575806182312445e-15  1.4984954551166948e-15  7.6005207081416738e-16  3.7166740384696112e-16  1.7450431275166831e-16  7.8313086754365242e-17  3.3413201753272649e-17  1.3465054122513089e-17  5.0862248517622770e-18  1.7837991695081142e-18  5.7286766285783241e-19  1.6566749064032973e-19  4.2194045980247083e-20  9.1341616932283551e-21  1.5815772605639493e-21  1.9286618797689276e-22  1.0983727795868325e-23  4.5000000000000000e+01  -5.0536492486662050e+00  5.8536768029558206e-01  -6.2513427824653550e-02  6.7324570411069649e-03  -7.4659934776804074e-04  8.5391559215528440e-05  -8.7381663300436477e-06  1.8935236707058074e-06  5.6851929156120372e-07  6.3106494546812078e-07  5.4249510916669803e-07  4.8020351180028626e-07  4.2263024296754223e-07  3.7145974270075886e-07  3.2587546430638417e-07  2.8537432875013227e-07  2.4944927888225229e-07  2.1766841437990829e-07  1.8961069341047512e-07  1.6487658692986523e-07  1.4310091847749460e-07  1.2395805500806057e-07  1.0718335118677623e-07  9.2513567067614347e-08  7.9681866663576227e-08  6.8481005480537019e-08  5.8733843439826637e-08  5.0264196099977948e-08  4.2917362263731837e-08  3.6557678574253344e-08  3.1064335643227837e-08  2.6333085192147325e-08  2.2267721225631119e-08  1.8780732768807173e-08  1.5796485621226170e-08  1.3249086233687823e-08  1.1081494862780054e-08  9.2420409816821589e-09  7.6835584287502001e-09  6.3667425245818481e-09  5.2586656519025860e-09  4.3294278109364586e-09  3.5523143219670884e-09  2.9042779734126284e-09  2.3654179337638029e-09  1.9188247464502157e-09  1.5502229525064050e-09  1.2472983675934826e-09  9.9941123819378259e-10  7.9741451838049939e-10  6.3342387615542208e-10  5.0076678192475772e-10  3.9389463655494884e-10  3.0817477624675190e-10  2.3975331183913743e-10  1.8544101784349023e-10  1.4257367734715910e-10  1.0892783431360876e-10  8.2674601233965190e-11  6.2324842264452525e-11  4.6663194958855092e-11  3.4692055668132149e-11  2.5601346851383280e-11  1.8742878168502169e-11  1.3605250155394179e-11  9.7904013868865555e-12  6.9832534098289951e-12  4.9336120365493182e-12  3.4501740195049402e-12  2.3875345181095292e-12  1.6339012180637715e-12  1.1048894614884222e-12  7.3768153069319074e-13  4.8591239289418620e-13  3.1560112886557881e-13  2.0195268097844817e-13  1.2718653490839953e-13  7.8736742578739177e-14  4.7848949246992248e-14  2.8512822109243635e-14  1.6634974670002691e-14  9.4819933800365703e-15  5.2688467561481486e-15  2.8472421896511102e-15  1.4921405574820141e-15  7.5617867318407595e-16  3.6941481089009123e-16  1.7327129851585082e-16  7.7656108628874623e-17  3.3073172541573940e-17  1.3297558171652381e-17  5.0084433968874100e-18  1.7495892009697569e-18  5.5881522806438163e-19  1.6040598954535015e-19  4.0402457241532520e-20  8.5900387310636429e-21  1.4419543176000436e-21  1.6537250021634437e-22  8.3246349316849980e-24  4.5000000000000000e+01  -5.5677976801106794e+00  7.4013505792503820e-01  -9.0149927335945110e-02  1.0385777361500504e-02  -1.1804069093301593e-03  1.3576009500496534e-04  -1.4549221613688727e-05  2.5637700861961686e-06  4.9101890044354837e-07  6.4014221738092359e-07  5.4153176740830965e-07  4.8037494511430132e-07  4.2264929409434790e-07  3.7149394160562655e-07  3.2590498969037073e-07  2.8539680935766900e-07  2.4946464240612854e-07  2.1767685892005773e-07  1.8961619030838259e-07  1.6488050183725543e-07  1.4310449420542238e-07  1.2396570273059577e-07  1.0719229071590356e-07  9.2519466743055582e-08  7.9686009896498106e-08  6.8485808782229038e-08  5.8740009079945658e-08  5.0269658736524863e-08  4.2920137328221122e-08  3.6559125710677378e-08  3.1066117397074986e-08  2.6335513114852597e-08  2.2270390820058692e-08  1.8782552224960999e-08  1.5797334805800482e-08  1.3249812544803448e-08  1.1082336785882073e-08  9.2427582142430421e-09  7.6840615176552529e-09  6.3671641548273519e-09  5.2590768479102868e-09  4.3297504279142350e-09  3.5525632079983851e-09  2.9045006699003698e-09  2.3655802382221811e-09  1.9189215818616666e-09  1.5502864331263494e-09  1.2473514738666289e-09  9.9947607512031708e-10  7.9748333072423485e-10  6.3346399723071308e-10  5.0077608328293418e-10  3.9389051867734524e-10  3.0816275028420018e-10  2.3974029882195950e-10  1.8543120429976157e-10  1.4255865429717056e-10  1.0890692624970782e-10  8.2655882546715452e-11  6.2309482582990706e-11  4.6650399419624091e-11  3.4682744237806992e-11  2.5593694822191200e-11  1.8735547837148733e-11  1.3599127958925440e-11  9.7858902877385162e-12  6.9798896040118896e-12  4.9308498604158070e-12  3.4479617243602828e-12  2.3859252228372395e-12  1.6326168334356131e-12  1.1038530344897021e-12  7.3695844654642000e-13  4.8539757546658292e-13  3.1521508502034631e-13  2.0167598251859972e-13  1.2698859328019397e-13  7.8601165739367266e-14  4.7760557270104646e-14  2.8453431589884401e-14  1.6594797891120827e-14  9.4553970501131719e-15  5.2516337524798827e-15  2.8365981642504685e-15  1.4857580271415375e-15  7.5234389648714954e-16  3.6717456366019940e-16  1.7203112445922515e-16  7.6994646960741436e-17  3.2733631612457110e-17  1.3131561344967260e-17  4.9312149424186921e-18  1.7156281728007969e-18  5.4496279528073370e-19  1.5521914473579748e-19  3.8638822052507517e-20  8.0595047411174144e-21  1.3082008229353463e-21  1.3989541732635406e-22  6.2855014104669532e-24  4.5000000000000000e+01  -6.5597809363940938e+00  9.5808404631724686e-01  -1.2901415326929094e-01  1.5971592897076968e-02  -1.8770775847184835e-03  2.1785085293873099e-04  -2.4072040497067365e-05  3.6640850009637287e-06  3.6372860163325400e-07  6.5494929465226466e-07  5.3985213949499699e-07  4.8059434771448546e-07  4.2264059199323248e-07  3.7151217983824963e-07  3.2591989659771165e-07  2.8540618381438590e-07  2.4946763833631235e-07  2.1767701130417566e-07  1.8961635115363142e-07  1.6487948081302817e-07  1.4310288666074631e-07  1.2396674771783784e-07  1.0719465600548814e-07  9.2520717682169569e-08  7.9686422703269471e-08  6.8487057175127891e-08  5.8742490508359252e-08  5.0271459956386103e-08  4.2920114398713608e-08  3.6558479858809874e-08  3.1065986321514090e-08  2.6336114746390870e-08  2.2271305995819733e-08  1.8782877790685874e-08  1.5797051941450643e-08  1.3249582992263557e-08  1.1082335741678927e-08  9.2428072912010071e-09  7.6840226088510725e-09  6.3670796289220647e-09  5.2590149934026944e-09  4.3296767119281769e-09  3.5524988476532244e-09  2.9044714580589391e-09  2.3655379274772916e-09  1.9188513028444916e-09  1.5502089190756578e-09  1.2472802387377080e-09  9.9942639724758776e-10  7.9745032689073188e-10  6.3342540969940957e-10  5.0073028252819502e-10  3.9384678784985092e-10  3.0812248014684219e-10  2.3970696564693446e-10  1.8540502043908384e-10  1.4253188299450882e-10  1.0887925827883500e-10  8.2632639322213094e-11  6.2290573896505263e-11  4.6634769294956042e-11  3.4670762856529920e-11  2.5584028464295188e-11  1.8727210185154016e-11  1.3592481170501550e-11  9.7809255007130800e-12  6.9760481122303965e-12  4.9276789765367510e-12  3.4454977741784171e-12  2.3841841885785042e-12  1.6312736766612479e-12  1.1027762793483614e-12  7.3618070731326475e-13  4.8483926562771465e-13  3.1481171092077905e-13  2.0139370471304322e-13  1.2678571976289827e-13  7.8459211508772065e-14  4.7666094711149242e-14  2.8390702451204285e-14  1.6553467862157471e-14  9.4280595688610975e-15  5.2338554343410466e-15  2.8256604428942149e-15  1.4792061116426827e-15  7.4843542311580891e-16  3.6491570953820044e-16  1.7077937005935557e-16  7.6325493221198947e-17  3.2390722047670103e-17  1.2964060244609029e-17  4.8533436557324130e-18  1.6814848927445125e-18  5.3113293540989282e-19  1.5004350800806401e-19  3.6882148706961972e-20  7.5323261787909708e-21  1.1759840319206514e-21  1.1428097902865042e-22  3.4867727371450593e-24  4.5000000000000000e+01  -9.1676669954774859e+00  1.4024808482263098e+00  -1.9793560128153490e-01  2.5528045078129197e-02  -3.0751849489994471e-03  3.5972967013788543e-04  -4.0535174721652149e-05  5.5653611330786136e-06  1.4388096516558128e-07  6.8042318313952433e-07  5.3688692756203940e-07  4.8091124276836883e-07  4.2258446372713507e-07  3.7150691876019350e-07  3.2591377547151976e-07  2.8540144431916180e-07  2.4945956590744722e-07  2.1766679499057568e-07  1.8960828846875592e-07  1.6487243724248453e-07  1.4309481142448429e-07  1.2395978152708140e-07  1.0718836898591539e-07  9.2515504540996641e-08  7.9681801905666796e-08  6.8482588548126461e-08  5.8739632793325814e-08  5.0269453206296688e-08  4.2917278038766305e-08  3.6555271147405229e-08  3.1063130803574585e-08  2.6333842970782196e-08  2.2269857246269229e-08  1.8781604552002989e-08  1.5795495104945436e-08  1.3248083836590709e-08  1.1081087425613373e-08  9.2418558849567177e-09  7.6832655615230473e-09  6.3663543341777109e-09  5.2583547665469768e-09  4.3290944036120882e-09  3.5519875948748753e-09  2.9040754856238689e-09  2.3652254562032639e-09  1.9185693228515217e-09  1.5499543254160253e-09  1.2470535105803796e-09  9.9922957975165749e-10  7.9728904967695862e-10  6.3328897921914688e-10  5.0061048506295339e-10  3.9374738593919001e-10  3.0804115957213659e-10  2.3964051066525816e-10  1.8535396874140302e-10  1.4249028296463744e-10  1.0884236283005555e-10  8.2602450789156422e-11  6.2266442041711497e-11  4.6614596371979552e-11  3.4654859221132544e-11  2.5571746478278475e-11  1.8717343913478749e-11  1.3584678643415789e-11  9.7748938910614540e-12  6.9714910827372455e-12  4.9241159173150570e-12  3.4426432708626024e-12  2.3821205406975853e-12  1.6297851243809293e-12  1.1016169790580109e-12  7.3533236635855402e-13  4.8422751073004839e-13  3.1436530254933724e-13  2.0108487419064111e-13  1.2656908020396429e-13  7.8306822585669093e-14  4.7562895815055294e-14  2.8321575077471164e-14  1.6508500971649938e-14  9.3990577934872674e-15  5.2150812918403140e-15  2.8140406183182094e-15  1.4722776901965565e-15  7.4432706251584994e-16  3.6255281836383684e-16  1.6947589468863078e-16  7.5629385986707339e-17  3.2034521919332725e-17  1.2790308852485555e-17  4.7728955475795617e-18  1.6463000256587859e-18  5.1686356503884761e-19  1.4469211677314361e-19  3.5076090017900964e-20  6.9948443280250260e-21  1.0403707089422146e-21  8.7079329690719501e-23  -3.5476921413863740e-24  4.5000000000000000e+01  -3.5579894236312484e+00  2.6509401727756204e-01  -2.5398231554585659e-02  2.6438038633497317e-03  -2.8697391315185555e-04  3.3266201924783700e-05  -2.7882691988352672e-06  1.2098676637241329e-06  6.4719049199373550e-07  6.2161519542050640e-07  5.4322345876141349e-07  4.7978519850277836e-07  4.2244710088938263e-07  3.7130158552563379e-07  3.2574933477884905e-07  2.8528629223479338e-07  2.4937943010866588e-07  2.1761895921047572e-07  1.8957237603732685e-07  1.6484180025635336e-07  1.4307655120026984e-07  1.2392614600046922e-07  1.0713797330560610e-07  9.2477419450639103e-08  7.9657569500185114e-08  6.8457099353936930e-08  5.8707806970380912e-08  5.0239349567945940e-08  4.2899026192514450e-08  3.6545134487791475e-08  3.1052788153762637e-08  2.6320918376644087e-08  2.2255456345138685e-08  1.8770674420038383e-08  1.5789645827173751e-08  1.3243365504280584e-08  1.1075764337553909e-08  9.2371933738111945e-09  7.6800666060294829e-09  6.3638671030197508e-09  5.2559014691217093e-09  4.3270353546761779e-09  3.5503552541750588e-09  2.9026490989932569e-09  2.3641851787203188e-09  1.9179289266186720e-09  1.5495281481256037e-09  1.2467329359715144e-09  9.9888094530926933e-10  7.9688839497535220e-10  6.3298579658372774e-10  5.0045706074425026e-10  3.9368444803480043e-10  3.0804570282717580e-10  2.3967244625835998e-10  1.8537441187076961e-10  1.4253643189470168e-10  1.0893106974269261e-10  8.2692060053174815e-11  6.2338872133457045e-11  4.6673502829599364e-11  3.4699073657203910e-11  2.5609405844724197e-11  1.8753843711986602e-11  1.3614508850270464e-11  9.7960061186648904e-12  6.9874180717349144e-12  4.9381321965939018e-12  3.4543843066703773e-12  2.3902763448185250e-12  1.6356932188130490e-12  1.1065109061078358e-12  7.3910741157120723e-13  4.8700796671285751e-13  3.1635120613884160e-13  2.0242786818063413e-13  1.2752220166668483e-13  7.8993789747058767e-14  4.8029926891457629e-14  2.8629873359908427e-14  1.6707509508087789e-14  9.5286572105483832e-15  5.3011695781612293e-15  2.8686842039341392e-15  1.5050964216472242e-15  7.6376518734861036e-16  3.7379078026943698e-16  1.7573038050565444e-16  7.8999360642770195e-17  3.3769851378058928e-17  1.3636542518580378e-17  5.1655783000409878e-18  1.8193089148429871e-18  5.8767466251844866e-19  1.7125128859455325e-19  4.4116111560276950e-20  9.7281879922291216e-21  1.7383399275116090e-21  2.2625699180026320e-22  1.6327235507352705e-23  4.5000000000000000e+01  -5.7329085661516936e+00  4.4628902545301374e-01  -4.1277559111556492e-02  4.2589710029761804e-03  -4.6084075661626347e-04  5.2588695840776186e-05  -4.9765019741630796e-06  1.4609269556512230e-06  6.1825922632033492e-07  6.2509150899780890e-07  5.4294938861861180e-07  4.7994318245148296e-07  4.2252509873677209e-07  3.7136498804408171e-07  3.2579112156602828e-07  2.8531203254048989e-07  2.4939916459389676e-07  2.1763258235494732e-07  1.8958442435228194e-07