<?xml version="1.0"?>
<VTKFile type="UnstructuredGrid"  version="0.1"  >
<UnstructuredGrid>
<Piece  NumberOfPoints="7777" NumberOfCells="36000">
<Points>
<DataArray  type="Float64"  NumberOfComponents="3"  format="ascii">0 0 0  2 0 0  4 0 0  6 0 0  8 0 0  10 0 0  12 0 0  14 0 0  16 0 0  18 0 0  20 0 0  22 0 0  24 0 0  26 0 0  28 0 0  30 0 0  32 0 0  34 0 0  36 0 0  38 0 0  40 0 0  42 0 0  44 0 0  46 0 0  48 0 0  50 0 0  52 0 0  54 0 0  56 0 0  58 0 0  60 0 0  62 0 0  64 0 0  66 0 0  68 0 0  70 0 0  72 0 0  74 0 0  76 0 0  78 0 0  80 0 0  82 0 0  84 0 0  86 0 0  88 0 0  90 0 0  92 0 0  94 0 0  96 0 0  98 0 0  100 0 0  102 0 0  104 0 0  106 0 0  108 0 0  110 0 0  112 0 0  114 0 0  116 0 0  118 0 0  120 0 0  122 0 0  124 0 0  126 0 0  128 0 0  130 0 0  132 0 0  134 0 0  136 0 0  138 0 0  140 0 0  142 0 0  144 0 0  146 0 0  148 0 0  150 0 0  152 0 0  154 0 0  156 0 0  158 0 0  160 0 0  162 0 0  164 0 0  166 0 0  168 0 0  170 0 0  172 0 0  174 0 0  176 0 0  178 0 0  180 0 0  182 0 0  184 0 0  186 0 0  188 0 0  190 0 0  192 0 0  194 0 0  196 0 0  198 0 0  200 0 0  0 1 0  2 1 0  4 1 0  6 1 0  8 1 0  10 1 0  12 1 0  14 1 0  16 1 0  18 1 0  20 1 0  22 1 0  24 1 0  26 1 0  28 1 0  30 1 0  32 1 0  34 1 0  36 1 0  38 1 0  40 1 0  42 1 0  44 1 0  46 1 0  48 1 0  50 1 0  52 1 0  54 1 0  56 1 0  58 1 0  60 1 0  62 1 0  64 1 0  66 1 0  68 1 0  70 1 0  72 1 0  74 1 0  76 1 0  78 1 0  80 1 0  82 1 0  84 1 0  86 1 0  88 1 0  90 1 0  92 1 0  94 1 0  96 1 0  98 1 0  100 1 0  102 1 0  104 1 0  106 1 0  108 1 0  110 1 0  112 1 0  114 1 0  116 1 0  118 1 0  120 1 0  122 1 0  124 1 0  126 1 0  128 1 0  130 1 0  132 1 0  134 1 0  136 1 0  138 1 0  140 1 0  142 1 0  144 1 0  146 1 0  148 1 0  150 1 0  152 1 0  154 1 0  156 1 0  158 1 0  160 1 0  162 1 0  164 1 0  166 1 0  168 1 0  170 1 0  172 1 0  174 1 0  176 1 0  178 1 0  180 1 0  182 1 0  184 1 0  186 1 0  188 1 0  190 1 0  192 1 0  194 1 0  196 1 0  198 1 0  200 1 0  0 2 0  2 2 0  4 2 0  6 2 0  8 2 0  10 2 0  12 2 0  14 2 0  16 2 0  18 2 0  20 2 0  22 2 0  24 2 0  26 2 0  28 2 0  30 2 0  32 2 0  34 2 0  36 2 0  38 2 0  40 2 0  42 2 0  44 2 0  46 2 0  48 2 0  50 2 0  52 2 0  54 2 0  56 2 0  58 2 0  60 2 0  62 2 0  64 2 0  66 2 0  68 2 0  70 2 0  72 2 0  74 2 0  76 2 0  78 2 0  80 2 0  82 2 0  84 2 0  86 2 0  88 2 0  90 2 0  92 2 0  94 2 0  96 2 0  98 2 0  100 2 0  102 2 0  104 2 0  106 2 0  108 2 0  110 2 0  112 2 0  114 2 0  116 2 0  118 2 0  120 2 0  122 2 0  124 2 0  126 2 0  128 2 0  130 2 0  132 2 0  134 2 0  136 2 0  138 2 0  140 2 0  142 2 0  144 2 0  146 2 0  148 2 0  150 2 0  152 2 0  154 2 0  156 2 0  158 2 0  160 2 0  162 2 0  164 2 0  166 2 0  168 2 0  170 2 0  172 2 0  174 2 0  176 2 0  178 2 0  180 2 0  182 2 0  184 2 0  186 2 0  188 2 0  190 2 0  192 2 0  194 2 0  196 2 0  198 2 0  200 2 0  0 3 0  2 3 0  4 3 0  6 3 0  8 3 0  10 3 0  12 3 0  14 3 0  16 3 0  18 3 0  20 3 0  22 3 0  24 3 0  26 3 0  28 3 0  30 3 0  32 3 0  34 3 0  36 3 0  38 3 0  40 3 0  42 3 0  44 3 0  46 3 0  48 3 0  50 3 0  52 3 0  54 3 0  56 3 0  58 3 0  60 3 0  62 3 0  64 3 0  66 3 0  68 3 0  70 3 0  72 3 0  74 3 0  76 3 0  78 3 0  80 3 0  82 3 0  84 3 0  86 3 0  88 3 0  90 3 0  92 3 0  94 3 0  96 3 0  98 3 0  100 3 0  102 3 0  104 3 0  106 3 0  108 3 0  110 3 0  112 3 0  114 3 0  116 3 0  118 3 0  120 3 0  122 3 0  124 3 0  126 3 0  128 3 0  130 3 0  132 3 0  134 3 0  136 3 0  138 3 0  140 3 0  142 3 0  144 3 0  146 3 0  148 3 0  150 3 0  152 3 0  154 3 0  156 3 0  158 3 0  160 3 0  162 3 0  164 3 0  166 3 0  168 3 0  170 3 0  172 3 0  174 3 0  176 3 0  178 3 0  180 3 0  182 3 0  184 3 0  186 3 0  188 3 0  190 3 0  192 3 0  194 3 0  196 3 0  198 3 0  200 3 0  0 4 0  2 4 0  4 4 0  6 4 0  8 4 0  10 4 0  12 4 0  14 4 0  16 4 0  18 4 0  20 4 0  22 4 0  24 4 0  26 4 0  28 4 0  30 4 0  32 4 0  34 4 0  36 4 0  38 4 0  40 4 0  42 4 0  44 4 0  46 4 0  48 4 0  50 4 0  52 4 0  54 4 0  56 4 0  58 4 0  60 4 0  62 4 0  64 4 0  66 4 0  68 4 0  70 4 0  72 4 0  74 4 0  76 4 0  78 4 0  80 4 0  82 4 0  84 4 0  86 4 0  88 4 0  90 4 0  92 4 0  94 4 0  96 4 0  98 4 0  100 4 0  102 4 0  104 4 0  106 4 0  108 4 0  110 4 0  112 4 0  114 4 0  116 4 0  118 4 0  120 4 0  122 4 0  124 4 0  126 4 0  128 4 0  130 4 0  132 4 0  134 4 0  136 4 0  138 4 0  140 4 0  142 4 0  144 4 0  146 4 0  148 4 0  150 4 0  152 4 0  154 4 0  156 4 0  158 4 0  160 4 0  162 4 0  164 4 0  166 4 0  168 4 0  170 4 0  172 4 0  174 4 0  176 4 0  178 4 0  180 4 0  182 4 0  184 4 0  186 4 0  188 4 0  190 4 0  192 4 0  194 4 0  196 4 0  198 4 0  200 4 0  0 5 0  2 5 0  4 5 0  6 5 0  8 5 0  10 5 0  12 5 0  14 5 0  16 5 0  18 5 0  20 5 0  22 5 0  24 5 0  26 5 0  28 5 0  30 5 0  32 5 0  34 5 0  36 5 0  38 5 0  40 5 0  42 5 0  44 5 0  46 5 0  48 5 0  50 5 0  52 5 0  54 5 0  56 5 0  58 5 0  60 5 0  62 5 0  64 5 0  66 5 0  68 5 0  70 5 0  72 5 0  74 5 0  76 5 0  78 5 0  80 5 0  82 5 0  84 5 0  86 5 0  88 5 0  90 5 0  92 5 0  94 5 0  96 5 0  98 5 0  100 5 0  102 5 0  104 5 0  106 5 0  108 5 0  110 5 0  112 5 0  114 5 0  116 5 0  118 5 0  120 5 0  122 5 0  124 5 0  126 5 0  128 5 0  130 5 0  132 5 0  134 5 0  136 5 0  138 5 0  140 5 0  142 5 0  144 5 0  146 5 0  148 5 0  150 5 0  152 5 0  154 5 0  156 5 0  158 5 0  160 5 0  162 5 0  164 5 0  166 5 0  168 5 0  170 5 0  172 5 0  174 5 0  176 5 0  178 5 0  180 5 0  182 5 0  184 5 0  186 5 0  188 5 0  190 5 0  192 5 0  194 5 0  196 5 0  198 5 0  200 5 0  0 6 0  2 6 0  4 6 0  6 6 0  8 6 0  10 6 0  12 6 0  14 6 0  16 6 0  18 6 0  20 6 0  22 6 0  24 6 0  26 6 0  28 6 0  30 6 0  32 6 0  34 6 0  36 6 0  38 6 0  40 6 0  42 6 0  44 6 0  46 6 0  48 6 0  50 6 0  52 6 0  54 6 0  56 6 0  58 6 0  60 6 0  62 6 0  64 6 0  66 6 0  68 6 0  70 6 0  72 6 0  74 6 0  76 6 0  78 6 0  80 6 0  82 6 0  84 6 0  86 6 0  88 6 0  90 6 0  92 6 0  94 6 0  96 6 0  98 6 0  100 6 0  102 6 0  104 6 0  106 6 0  108 6 0  110 6 0  112 6 0  114 6 0  116 6 0  118 6 0  120 6 0  122 6 0  124 6 0  126 6 0  128 6 0  130 6 0  132 6 0  134 6 0  136 6 0  138 6 0  140 6 0  142 6 0  144 6 0  146 6 0  148 6 0  150 6 0  152 6 0  154 6 0  156 6 0  158 6 0  160 6 0  162 6 0  164 6 0  166 6 0  168 6 0  170 6 0  172 6 0  174 6 0  176 6 0  178 6 0  180 6 0  182 6 0  184 6 0  186 6 0  188 6 0  190 6 0  192 6 0  194 6 0  196 6 0  198 6 0  200 6 0  0 0 1  2 0 1  4 0 1  6 0 1  8 0 1  10 0 1  12 0 1  14 0 1  16 0 1  18 0 1  20 0 1  22 0 1  24 0 1  26 0 1  28 0 1  30 0 1  32 0 1  34 0 1  36 0 1  38 0 1  40 0 1  42 0 1  44 0 1  46 0 1  48 0 1  50 0 1  52 0 1  54 0 1  56 0 1  58 0 1  60 0 1  62 0 1  64 0 1  66 0 1  68 0 1  70 0 1  72 0 1  74 0 1  76 0 1  78 0 1  80 0 1  82 0 1  84 0 1  86 0 1  88 0 1  90 0 1  92 0 1  94 0 1  96 0 1  98 0 1  100 0 1  102 0 1  104 0 1  106 0 1  108 0 1  110 0 1  112 0 1  114 0 1  116 0 1  118 0 1  120 0 1  122 0 1  124 0 1  126 0 1  128 0 1  130 0 1  132 0 1  134 0 1  136 0 1  138 0 1  140 0 1  142 0 1  144 0 1  146 0 1  148 0 1  150 0 1  152 0 1  154 0 1  156 0 1  158 0 1  160 0 1  162 0 1  164 0 1  166 0 1  168 0 1  170 0 1  172 0 1  174 0 1  176 0 1  178 0 1  180 0 1  182 0 1  184 0 1  186 0 1  188 0 1  190 0 1  192 0 1  194 0 1  196 0 1  198 0 1  200 0 1  0 1 1  2 1 1  4 1 1  6 1 1  8 1 1  10 1 1  12 1 1  14 1 1  16 1 1  18 1 1  20 1 1  22 1 1  24 1 1  26 1 1  28 1 1  30 1 1  32 1 1  34 1 1  36 1 1  38 1 1  40 1 1  42 1 1  44 1 1  46 1 1  48 1 1  50 1 1  52 1 1  54 1 1  56 1 1  58 1 1  60 1 1  62 1 1  64 1 1  66 1 1  68 1 1  70 1 1  72 1 1  74 1 1  76 1 1  78 1 1  80 1 1  82 1 1  84 1 1  86 1 1  88 1 1  90 1 1  92 1 1  94 1 1  96 1 1  98 1 1  100 1 1  102 1 1  104 1 1  106 1 1  108 1 1  110 1 1  112 1 1  114 1 1  116 1 1  118 1 1  120 1 1  122 1 1  124 1 1  126 1 1  128 1 1  130 1 1  132 1 1  134 1 1  136 1 1  138 1 1  140 1 1  142 1 1  144 1 1  146 1 1  148 1 1  150 1 1  152 1 1  154 1 1  156 1 1  158 1 1  160 1 1  162 1 1  164 1 1  166 1 1  168 1 1  170 1 1  172 1 1  174 1 1  176 1 1  178 1 1  180 1 1  182 1 1  184 1 1  186 1 1  188 1 1  190 1 1  192 1 1  194 1 1  196 1 1  198 1 1  200 1 1  0 2 1  2 2 1  4 2 1  6 2 1  8 2 1  10 2 1  12 2 1  14 2 1  16 2 1  18 2 1  20 2 1  22 2 1  24 2 1  26 2 1  28 2 1  30 2 1  32 2 1  34 2 1  36 2 1  38 2 1  40 2 1  42 2 1  44 2 1  46 2 1  48 2 1  50 2 1  52 2 1  54 2 1  56 2 1  58 2 1  60 2 1  62 2 1  64 2 1  66 2 1  68 2 1  70 2 1  72 2 1  74 2 1  76 2 1  78 2 1  80 2 1  82 2 1  84 2 1  86 2 1  88 2 1  90 2 1  92 2 1  94 2 1  96 2 1  98 2 1  100 2 1  102 2 1  104 2 1  106 2 1  108 2 1  110 2 1  112 2 1  114 2 1  116 2 1  118 2 1  120 2 1  122 2 1  124 2 1  126 2 1  128 2 1  130 2 1  132 2 1  134 2 1  136 2 1  138 2 1  140 2 1  142 2 1  144 2 1  146 2 1  148 2 1  150 2 1  152 2 1  154 2 1  156 2 1  158 2 1  160 2 1  162 2 1  164 2 1  166 2 1  168 2 1  170 2 1  172 2 1  174 2 1  176 2 1  178 2 1  180 2 1  182 2 1  184 2 1  186 2 1  188 2 1  190 2 1  192 2 1  194 2 1  196 2 1  198 2 1  200 2 1  0 3 1  2 3 1  4 3 1  6 3 1  8 3 1  10 3 1  12 3 1  14 3 1  16 3 1  18 3 1  20 3 1  22 3 1  24 3 1  26 3 1  28 3 1  30 3 1  32 3 1  34 3 1  36 3 1  38 3 1  40 3 1  42 3 1  44 3 1  46 3 1  48 3 1  50 3 1  52 3 1  54 3 1  56 3 1  58 3 1  60 3 1  62 3 1  64 3 1  66 3 1  68 3 1  70 3 1  72 3 1  74 3 1  76 3 1  78 3 1  80 3 1  82 3 1  84 3 1  86 3 1  88 3 1  90 3 1  92 3 1  94 3 1  96 3 1  98 3 1  100 3 1  102 3 1  104 3 1  106 3 1  108 3 1  110 3 1  112 3 1  114 3 1  116 3 1  118 3 1  120 3 1  122 3 1  124 3 1  126 3 1  128 3 1  130 3 1  132 3 1  134 3 1  136 3 1  138 3 1  140 3 1  142 3 1  144 3 1  146 3 1  148 3 1  150 3 1  152 3 1  154 3 1  156 3 1  158 3 1  160 3 1  162 3 1  164 3 1  166 3 1  168 3 1  170 3 1  172 3 1  174 3 1  176 3 1  178 3 1  180 3 1  182 3 1  184 3 1  186 3 1  188 3 1  190 3 1  192 3 1  194 3 1  196 3 1  198 3 1  200 3 1  0 4 1  2 4 1  4 4 1  6 4 1  8 4 1  10 4 1  12 4 1  14 4 1  16 4 1  18 4 1  20 4 1  22 4 1  24 4 1  26 4 1  28 4 1  30 4 1  32 4 1  34 4 1  36 4 1  38 4 1  40 4 1  42 4 1  44 4 1  46 4 1  48 4 1  50 4 1  52 4 1  54 4 1  56 4 1  58 4 1  60 4 1  62 4 1  64 4 1  66 4 1  68 4 1  70 4 1  72 4 1  74 4 1  76 4 1  78 4 1  80 4 1  82 4 1  84 4 1  86 4 1  88 4 1  90 4 1  92 4 1  94 4 1  96 4 1
[...]
<PointData  Scalars="f_48-1"> 
<DataArray  type="Float64"  Name="f_48-1"  format="ascii">4.5000000000000000e+01  4.4998912008424874e+01  4.4997822715697353e+01  4.4996735282082405e+01  4.4995666519077766e+01  4.4994647941976048e+01  4.4993678804006045e+01  4.4992717191292535e+01  4.4991760583681319e+01  4.4990858214383749e+01  4.4990017974051220e+01  4.4989245288865767e+01  4.4988569386655776e+01  4.4987994019802862e+01  4.4987482516806637e+01  4.4987009280052966e+01  4.4986552134160547e+01  4.4986088503726826e+01  4.4985614894605540e+01  4.4985127670548117e+01  4.4984624273301733e+01  4.4984102485152647e+01  4.4983543939335441e+01  4.4982958473075406e+01  4.4982378439914818e+01  4.4981796781131877e+01  4.4981195153986832e+01  4.4980574976891361e+01  4.4979941348468493e+01  4.4979301498104363e+01  4.4978649603491775e+01  4.4977970965481376e+01  4.4977266914434416e+01  4.4976544816105161e+01  4.4975810454477262e+01  4.4975060694541334e+01  4.4974278747340826e+01  4.4973463300948588e+01  4.4972628238250849e+01  4.4971763685231522e+01  4.4970838487432239e+01  4.4969838293700370e+01  4.4968770016865392e+01  4.4967637996072590e+01  4.4966437151975342e+01  4.4965151450448765e+01  4.4963751368135220e+01  4.4962207128455788e+01  4.4960496702990426e+01  4.4958604460412346e+01  4.4956528668252524e+01  4.4954275730068325e+01  4.4951836140755198e+01  4.4949182199257386e+01  4.4946278657881365e+01  4.4943074994273388e+01  4.4939510885478022e+01  4.4935536811194808e+01  4.4931097404589593e+01  4.4926109735104603e+01  4.4920489447951361e+01  4.4914169051943453e+01  4.4907089182512223e+01  4.4899201347921768e+01  4.4890437073431571e+01  4.4880679377839130e+01  4.4869818814783457e+01  4.4857783489314002e+01  4.4844490975816150e+01  4.4829827485651045e+01  4.4813672498578377e+01  4.4795921193209303e+01  4.4776462070188337e+01  4.4755150369105188e+01  4.4731840712736464e+01  4.4706391970846944e+01  4.4678657247252779e+01  4.4648512862086136e+01  4.4615822248976031e+01  4.4580424709115455e+01  4.4542186551258744e+01  4.4500978269097430e+01  4.4456661285566170e+01  4.4409106501855746e+01  4.4358159425838615e+01  4.4303640381934578e+01  4.4245392439836280e+01  4.4183269394707665e+01  4.4117125181456942e+01  4.4046822480053450e+01  4.3972228992291626e+01  4.3893204459511459e+01  4.3809654424862671e+01  4.3721519308275894e+01  4.3628692391787048e+01  4.3531079164220600e+01  4.3428662139819664e+01  4.3321392938220335e+01  4.3209182277779817e+01  4.3091950391991126e+01  4.2969470268078595e+01  4.5000000000000000e+01  4.4998899722424383e+01  4.4997813483356083e+01  4.4996739263449506e+01  4.4995674438673610e+01  4.4994649735411549e+01  4.4993675290161363e+01  4.4992718309843106e+01  4.4991763644078006e+01  4.4990859830640133e+01  4.4990020993585411e+01  4.4989250564217834e+01  4.4988574806002994e+01  4.4987999054440422e+01  4.4987487222772060e+01  4.4987012755314979e+01  4.4986554890853299e+01  4.4986090997191454e+01  4.4985616662207271e+01  4.4985129579137116e+01  4.4984625746280216e+01  4.4984102942054648e+01  4.4983546050147638e+01  4.4982962037307018e+01  4.4982381262335615e+01  4.4981799205430491e+01  4.4981197535314273e+01  4.4980578113190234e+01  4.4979945582613816e+01  4.4979305069875075e+01  4.4978652261891234e+01  4.4977973390701429e+01  4.4977269672698242e+01  4.4976548899649423e+01  4.4975814894059731e+01  4.4975064368583276e+01  4.4974282480797058e+01  4.4973467416717639e+01  4.4972632059537275e+01  4.4971767080794578e+01  4.4970842132341275e+01  4.4969842456677377e+01  4.4968774320800478e+01  4.4967642381236004e+01  4.4966441550862370e+01  4.4965155682611936e+01  4.4963755576774098e+01  4.4962211143720573e+01  4.4960500326076868e+01  4.4958608627141068e+01  4.4956534323719346e+01  4.4954282229942983e+01  4.4951842446069399e+01  4.4949187764925995e+01  4.4946283148438880e+01  4.4943079454652022e+01  4.4939516553956125e+01  4.4935541902401816e+01  4.4931099838617953e+01  4.4926111102142663e+01  4.4920491646247427e+01  4.4914171758724052e+01  4.4907091360397160e+01  4.4899201646686592e+01  4.4890436831446642e+01  4.4880682056993848e+01  4.4869823606961205e+01  4.4857786067712077e+01  4.4844488661682455e+01  4.4829823738439863e+01  4.4813674699198586e+01  4.4795927765017090e+01  4.4776463501593689e+01  4.4755144142828385e+01  4.4731833390770696e+01  4.4706392258118363e+01  4.4678665107039194e+01  4.4648517552238985e+01  4.4615818172690318e+01  4.4580416795065076e+01  4.4542184352379863e+01  4.4500986042892563e+01  4.4456669879918067e+01  4.4409104975994630e+01  4.4358151325728890e+01  4.4303636584004970e+01  4.4245396071941386e+01  4.4183275451712319e+01  4.4117125792911466e+01  4.4046817471667048e+01  4.3972224184329605e+01  4.3893207358147677e+01  4.3809658023194849e+01  4.3721518223082569e+01  4.3628689776458479e+01  4.3531080367709414e+01  4.3428664773417680e+01  4.3321397151302129e+01  4.3209193766969534e+01  4.3091984609387232e+01  4.2969655288959977e+01  4.5000000000000000e+01  4.4998899991864405e+01  4.4997814693013730e+01  4.4996739993469248e+01  4.4995679503835824e+01  4.4994652901973190e+01  4.4993671409091071e+01  4.4992716791146641e+01  4.4991769792987562e+01  4.4990864625958757e+01  4.4990026684859366e+01  4.4989260108184702e+01  4.4988585114280419e+01  4.4988006668548664e+01  4.4987494207932002e+01  4.4987019518062560e+01  4.4986561180311035e+01  4.4986097903281006e+01  4.4985622571991037e+01  4.4985134050766206e+01  4.4984629512885526e+01  4.4984104975219239e+01  4.4983549049178080e+01  4.4982968538009281e+01  4.4982387821523986e+01  4.4981804210950756e+01  4.4981202698294759e+01  4.4980584908453736e+01  4.4979954742177554e+01  4.4979313758993506e+01  4.4978658260994600e+01  4.4977978536042052e+01  4.4977275895536522e+01  4.4976557765382317e+01  4.4975825312128940e+01  4.4975073086565459e+01  4.4974290099207231e+01  4.4973476169380803e+01  4.4972641289144214e+01  4.4971775228845409e+01  4.4970849904892532e+01  4.4969851533443148e+01  4.4968784370782302e+01  4.4967652654215875e+01  4.4966452120231558e+01  4.4965165884242658e+01  4.4963765051129158e+01  4.4962220383438464e+01  4.4960509510316975e+01  4.4958618835502456e+01  4.4956547207125872e+01  4.4954296878783182e+01  4.4951856796058863e+01  4.4949201351083779e+01  4.4946295074235550e+01  4.4943089663553806e+01  4.4939528162457599e+01  4.4935554867485941e+01  4.4931109710951745e+01  4.4926117195599069e+01  4.4920496284424807e+01  4.4914176814547758e+01  4.4907099584621683e+01  4.4899210806093897e+01  4.4890440758264340e+01  4.4880682321455183e+01  4.4869826958632707e+01  4.4857794663420265e+01  4.4844497268542106e+01  4.4829826507691173e+01  4.4813675508800763e+01  4.4795932293272749e+01  4.4776470418499770e+01  4.4755150849106940e+01  4.4731835031875569e+01  4.4706387665170126e+01  4.4678663458648714e+01  4.4648522144203724e+01  4.4615824085204828e+01  4.4580421114780926e+01  4.4542184888280232e+01  4.4500987753685337e+01  4.4456679887316881e+01  4.4409116695535189e+01  4.4358156911343897e+01  4.4303638474710738e+01  4.4245396208007875e+01  4.4183276962414880e+01  4.4117131320376444e+01  4.4046821900340085e+01  4.3972222604324209e+01  4.3893205192119098e+01  4.3809661438244824e+01  4.3721519986901363e+01  4.3628688172455213e+01  4.3531086744509849e+01  4.3428673448951038e+01  4.3321399821219565e+01  4.3209203547116559e+01  4.3092024160095001e+01  4.2969756169681638e+01  4.5000000000000000e+01  4.4998900303385049e+01  4.4997815843850098e+01  4.4996737263514284e+01  4.4995680394387108e+01  4.4994659826395477e+01  4.4993671579974105e+01  4.4992715553511182e+01  4.4991772248780372e+01  4.4990867660430943e+01  4.4990032298212292e+01  4.4989269768452523e+01  4.4988595912455239e+01  4.4988014828431467e+01  4.4987500972644717e+01  4.4987026463301966e+01  4.4986568256911802e+01  4.4986105311915111e+01  4.4985628957290928e+01  4.4985138870935103e+01  4.4984633259626115e+01  4.4984107206319941e+01  4.4983551930871428e+01  4.4982974319722040e+01  4.4982394356546891e+01  4.4981809418546540e+01  4.4981207720169856e+01  4.4980592088522116e+01  4.4979964557574725e+01  4.4979322975040915e+01  4.4978664514773499e+01  4.4977983320081790e+01  4.4977281825297013e+01  4.4976566925935806e+01  4.4975836293198050e+01  4.4975082331647180e+01  4.4974297727957520e+01  4.4973484502188519e+01  4.4972650526012643e+01  4.4971783883619587e+01  4.4970857985144697e+01  4.4969860615343265e+01  4.4968794440386979e+01  4.4967663034984298e+01  4.4966463086246101e+01  4.4965176818644586e+01  4.4963775088857858e+01  4.4962229812202999e+01  4.4960518839500494e+01  4.4958629312625128e+01  4.4956560389581597e+01  4.4954311765232177e+01  4.4951871284858363e+01  4.4949215088494810e+01  4.4946307378891170e+01  4.4943100370731017e+01  4.4939540038763106e+01  4.4935568081266297e+01  4.4931120467679314e+01  4.4926124529166849e+01  4.4920501267699237e+01  4.4914180949433849e+01  4.4907106968255135e+01  4.4899221004719578e+01  4.4890447107738787e+01  4.4880683254982820e+01  4.4869828185912461e+01  4.4857801221030030e+01  4.4844506557990407e+01  4.4829832250260303e+01  4.4813678132387139e+01  4.4795934544546476e+01  4.4776473834117020e+01  4.4755158364634646e+01  4.4731841826924764e+01  4.4706386832143664e+01  4.4678659740297824e+01  4.4648521629312910e+01  4.4615828142541105e+01  4.4580428620872596e+01  4.4542189581388875e+01  4.4500988802997703e+01  4.4456684790612393e+01  4.4409125845839867e+01  4.4358165615837329e+01  4.4303645646032273e+01  4.4245398761510728e+01  4.4183275877937838e+01  4.4117133526438920e+01  4.4046826978650316e+01  4.3972225067349463e+01  4.3893204745725974e+01  4.3809663063171719e+01  4.3721520621607816e+01  4.3628684274093281e+01  4.3531088131017533e+01  4.3428681469214794e+01  4.3321405425307866e+01  4.3209212325114251e+01  4.3092066884308302e+01  4.2969835523718082e+01  4.5000000000000000e+01  4.4998902735389663e+01  4.4997817528224246e+01  4.4996728659469881e+01  4.4995681710263376e+01  4.4994669636875329e+01  4.4993675865590262e+01  4.4992715220441148e+01  4.4991771750616934e+01  4.4990867971544056e+01  4.4990038072705090e+01  4.4989278893885626e+01  4.4988604247502892e+01  4.4988021049206139e+01  4.4987506423992933e+01  4.4987032099007074e+01  4.4986573893891240e+01  4.4986110770435857e+01  4.4985633655677596e+01  4.4985142725997918e+01  4.4984636163085433e+01  4.4984108883535860e+01  4.4983554509786366e+01  4.4982978885576870e+01  4.4982399106025674e+01  4.4981813431673650e+01  4.4981211850146238e+01  4.4980598113923953e+01  4.4979972684302737e+01  4.4979330219385659e+01  4.4978669178779327e+01  4.4977986896538035e+01  4.4977286509442834e+01  4.4976574422634691e+01  4.4975845208204980e+01  4.4975089644328868e+01  4.4974303677365185e+01  4.4973490868842369e+01  4.4972657402847560e+01  4.4971790464483966e+01  4.4970864443337796e+01  4.4969867940299075e+01  4.4968802459619148e+01  4.4967671147980397e+01  4.4966471558682237e+01  4.4965185382994278e+01  4.4963783056268440e+01  4.4962237212971743e+01  4.4960526153840092e+01  4.4958637766714901e+01  4.4956571113992673e+01  4.4954323608844092e+01  4.4951882425895448e+01  4.4949225347922230e+01  4.4946316557391505e+01  4.4943108689073064e+01  4.4939549411610137e+01  4.4935578043382030e+01  4.4931128154312077e+01  4.4926129914451295e+01  4.4920505353055319e+01  4.4914184050100978e+01  4.4907111602541420e+01  4.4899227652414211e+01  4.4890452038966018e+01  4.4880685269892581e+01  4.4869829921545865e+01  4.4857804980813640e+01  4.4844511276961981e+01  4.4829835908746674e+01  4.4813681899336906e+01  4.4795937355829082e+01  4.4776473891536078e+01  4.4755160108516591e+01  4.4731845940756315e+01  4.4706388947213043e+01  4.4678659924690685e+01  4.4648520398542246e+01  4.4615827320601724e+01  4.4580431864297495e+01  4.4542194817837384e+01  4.4500992705769320e+01  4.4456687694359942e+01  4.4409128314307878e+01  4.4358168845106626e+01  4.4303651387324734e+01  4.4245403784363596e+01  4.4183276615504262e+01  4.4117133010354920e+01  4.4046827692757489e+01  4.3972226233953641e+01  4.3893206590055570e+01  4.3809664748247265e+01  4.3721520541593627e+01  4.3628683437962984e+01  4.3531088183816351e+01  4.3428682576784858e+01  4.3321407323246831e+01  4.3209219277574618e+01  4.3092099576575478e+01  4.2969913264570707e+01  4.5000000000000000e+01  4.4998906380022063e+01  4.4997832593598382e+01  4.4996743601034041e+01  4.4995691898965269e+01  4.4994680336933172e+01  4.4993679829727647e+01  4.4992713714408758e+01  4.4991769635325866e+01  4.4990868329251612e+01  4.4990041681533803e+01  4.4989283993762740e+01  4.4988609127126161e+01  4.4988024585803686e+01  4.4987509490276430e+01  4.4987035490057558e+01  4.4986577227098785e+01  4.4986113717547923e+01  4.4985636267019061e+01  4.4985145084828410e+01  4.4984637824207809e+01  4.4984109488577111e+01  4.4983555501211079e+01  4.4982981174445698e+01  4.4982401632479075e+01  4.4981815518305638e+01  4.4981214177771555e+01  4.4980601652460891e+01  4.4979977298704057e+01  4.4979334174341304e+01  4.4978671391219478e+01  4.4977988372660803e+01  4.4977288839083648e+01  4.4976578572978234e+01  4.4975850186225536e+01  4.4975093529471245e+01  4.4974306619040519e+01  4.4973494109502319e+01  4.4972661072177509e+01  4.4971793970093557e+01  4.4970867759137327e+01  4.4969871636136240e+01  4.4968806553747754e+01  4.4967675413354108e+01  4.4966476128247443e+01  4.4965189989008181e+01  4.4963787227415857e+01  4.4962240912120066e+01  4.4960529661486682e+01  4.4958641862196778e+01  4.4956576486184780e+01  4.4954329681717205e+01  4.4951888186932678e+01  4.4949230530965622e+01  4.4946321104594418e+01  4.4943112980589547e+01  4.4939554434252393e+01  4.4935583330784603e+01  4.4931132049077142e+01  4.4926132338780562e+01  4.4920506983774779e+01  4.4914185071663006e+01  4.4907113180447141e+01  4.4899230246823898e+01  4.4890453866448460e+01  4.4880685791564964e+01  4.4869830574787045e+01  4.4857806197801082e+01  4.4844512107390948e+01  4.4829836312566528e+01  4.4813683338877020e+01  4.4795938795654934e+01  4.4776472958378932e+01  4.4755158763937978e+01  4.4731845878941101e+01  4.4706389044972738e+01  4.4678659977291076e+01  4.4648519040390376e+01  4.4615824594004657e+01  4.4580430729058492e+01  4.4542195953849351e+01  4.4500994833732364e+01  4.4456688492816603e+01  4.4409127163465755e+01  4.4358168266068787e+01  4.4303652678436720e+01  4.4245405614864183e+01  4.4183277043961766e+01  4.4117131837990684e+01  4.4046826383671551e+01  4.3972225290001163e+01  4.3893206365294134e+01  4.3809663852960647e+01  4.3721517863799392e+01  4.3628684419573233e+01  4.3531089548731551e+01  4.3428682746663043e+01  4.3321404013672286e+01  4.3209225574245380e+01  4.3092135350780374e+01  4.2970017598105159e+01  4.5000000000000000e+01  4.4998893966432597e+01  4.4997830757163996e+01  4.4996757390933730e+01  4.4995700030015335e+01  4.4994677688398262e+01  4.4993677950221318e+01  4.4992712531278741e+01  4.4991769428493008e+01  4.4990868129513203e+01  4.4990043120430919e+01  4.4989285064060354e+01  4.4988608572553765e+01  4.4988024003415454e+01  4.4987509280025058e+01  4.4987035857019642e+01  4.4986577904118988e+01  4.4986114192933464e+01  4.4985636391625597e+01  4.4985145337605410e+01  4.4984637936524585e+01  4.4984108828435893e+01  4.4983554906932056e+01  4.4982980821436122e+01  4.4982401275881479e+01  4.4981815158000835e+01  4.4981213815034884e+01  4.4980601888087747e+01  4.4979978196932869e+01  4.4979334517233390e+01  4.4978670620405374e+01  4.4977987123228964e+01  4.4977287804651084e+01  4.4976578592868641e+01  4.4975850825999032e+01  4.4975093390562833e+01  4.4974305742157888e+01  4.4973493101089559e+01  4.4972660308444681e+01  4.4971793588307918e+01  4.4970867338679433e+01  4.4969871100398919e+01  4.4968805912572421e+01  4.4967674529427839e+01  4.4966475434859149e+01  4.4965189635169629e+01  4.4963786774651098e+01  4.4962240235717893e+01  4.4960528797481508e+01  4.4958640870111623e+01  4.4956575637827463e+01  4.4954328860343544e+01  4.4951886965670028e+01  4.4949228981158043e+01  4.4946319390171688e+01  4.4943111290159322e+01  4.4939553483954903e+01  4.4935582908965799e+01  4.4931130941630066e+01  4.4926130733904010e+01  4.4920505460747989e+01  4.4914183087530205e+01  4.4907111018489232e+01  4.4899228403652451e+01  4.4890451756980966e+01  4.4880683489347938e+01  4.4869828503160171e+01  4.4857804356603914e+01  4.4844509902766845e+01  4.4829832965219417e+01  4.4813680616939720e+01  4.4795937345098970e+01  4.4776470118120855e+01  4.4755155221222701e+01  4.4731842874354669e+01  4.4706385747121708e+01  4.4678657543611735e+01  4.4648516499610466e+01  4.4615820514567112e+01  4.4580426661637787e+01  4.4542192288723228e+01  4.4500992295295205e+01  4.4456686269382693e+01  4.4409122688471342e+01  4.4358163348461261e+01  4.4303649912683582e+01  4.4245403535627560e+01  4.4183274456720646e+01  4.4117128928285503e+01  4.4046823302105118e+01  4.3972222875905025e+01  4.3893205215022739e+01  4.3809663087947513e+01  4.3721514102111840e+01  4.3628681758210362e+01  4.3531082797189669e+01  4.3428677651083468e+01  4.3321404863473326e+01  4.3209226974849059e+01  4.3092150273893509e+01  4.2970212584496053e+01  4.5000000000000000e+01  4.4998919049799397e+01  4.4997828466832381e+01  4.4996733925816450e+01  4.4995664260472495e+01  4.4994643942552500e+01  4.4993672619279124e+01  4.4992713125628548e+01  4.4991756791717172e+01  4.4990853092821673e+01  4.4990011959107392e+01  4.4989237526926267e+01  4.4988559838225285e+01  4.4987986616117148e+01  4.4987477830795982e+01  4.4987005287723321e+01  4.4986549946945672e+01  4.4986087213507240e+01  4.4985612864956124e+01  4.4985125173645741e+01  4.4984620598886899e+01  4.4984099236810216e+01  4.4983542111667006e+01  4.4982954415889452e+01  4.4982373076058273e+01  4.4981792866775628e+01  4.4981191153513478e+01  4.4980570255925031e+01  4.4979935804836700e+01  4.4979295157299703e+01  4.4978643861271564e+01  4.4977965251883049e+01  4.4977260522274641e+01  4.4976537926491524e+01  4.4975802891016315e+01  4.4975053640681821e+01  4.4974272206575783e+01  4.4973455483758485e+01  4.4972619721629563e+01  4.4971756440045787e+01  4.4970831953844375e+01  4.4969830275157726e+01  4.4968760483528776e+01  4.4967628214427187e+01  4.4966427286270680e+01  4.4965141865611798e+01  4.4963742550327112e+01  4.4962198711693723e+01  4.4960488385040541e+01  4.4958595482584187e+01  4.4956517649291960e+01  4.4954262890180239e+01  4.4951822881499794e+01  4.4949168732979992e+01  4.4946265415029281e+01  4.4943063237346919e+01  4.4939499715061139e+01  4.4935525131334508e+01  4.4931087476925711e+01  4.4926102308915269e+01  4.4920481585135917e+01  4.4914160659858823e+01  4.4907081482836901e+01  4.4899192711796879e+01  4.4890427944581248e+01  4.4880670883599699e+01  4.4869809746912182e+01  4.4857775115658598e+01  4.4844485256843370e+01  4.4829822322426701e+01  4.4813663489278092e+01  4.4795908409252036e+01  4.4776453381630233e+01  4.4755148778085442e+01  4.4731837962471062e+01  4.4706383282723394e+01  4.4678644879019522e+01  4.4648501839512974e+01  4.4615818140100068e+01  4.4580422391900370e+01  4.4542177024438274e+01  4.4500962727628576e+01  4.4456646663146984e+01  4.4409097133804643e+01  4.4358154501204410e+01  4.4303633878753459e+01  4.4245380980888648e+01  4.4183258540156253e+01  4.4117118931266020e+01  4.4046820116124422e+01  4.3972225791715161e+01  4.3893199549314147e+01  4.3809647846156736e+01  4.3721513360879143e+01  4.3628691363968244e+01  4.3531081198429128e+01  4.3428661154716224e+01  4.3321392057441621e+01  4.3209188077440764e+01  4.3091981341606242e+01  4.2969652888428044e+01  4.5000000000000000e+01  4.4998906102645897e+01  4.4997820316926806e+01  4.4996740227070937e+01  4.4995675759553521e+01  4.4994651301150476e+01  4.4993674021535597e+01  4.4992717130258185e+01  4.4991764517934143e+01  4.4990860013900736e+01  4.4990020242161805e+01  4.4989249258843863e+01  4.4988572488436951e+01  4.4987996837162704e+01  4.4987486714743937e+01  4.4987012571888663e+01  4.4986555519144645e+01  4.4986092739433232e+01  4.4985617798266091e+01  4.4985129978406434e+01  4.4984624926939283e+01  4.4984101706906