<?xml version="1.0"?>
<VTKFile type="UnstructuredGrid"  version="0.1"  >
<UnstructuredGrid>
<Piece  NumberOfPoints="6796" NumberOfCells="27753">
<Points>
<DataArray  type="Float64"  NumberOfComponents="3"  format="ascii">23.418466 -21.263788 -38.317746  23.1924235 -20.016851 -35.790725  22.1258105 -20.018638 -36.8555515  23.160908 -18.9807015 -36.85839  24.485079 -21.262001 -37.2529195  25.551692 -21.260214 -36.188093  24.227521 -18.9789145 -35.7935635  22.90335 -16.697615 -35.399034  21.8682525 -17.7355515 -35.3961955  20.833155 -18.773488 -35.393357  25.2651425 -18.9818075 -34.7530495  24.2318235 -20.01696 -34.751216  22.9076525 -17.7356605 -34.3566865  22.911955 -18.773706 -33.314339  23.418568 -23.392922 -36.18851  22.1327145 -23.1855045 -33.681781  21.1054825 -23.15339 -34.7411275  22.133849 -22.119522 -34.746629  23.4174335 -24.4589045 -35.123662  23.416299 -25.524887 -34.058814  21.104348 -24.2193725 -33.6762795  20.84913 -20.846122 -33.304748  19.8207635 -21.87999 -33.2992465  18.792397 -22.913858 -33.293745  21.286545 -23.394501 -38.318954  20.028322 -22.1176545 -36.8540235  21.05985 -21.0839945 -36.8561555  20.0206645 -21.079476 -37.8998595  18.754784 -18.764451 -37.480765  18.7624415 -19.8026295 -36.434929  19.7939695 -18.7689695 -36.437061  19.801627 -19.807148 -35.39122500000001  18.770099 -20.840808 -35.389093  21.086625 -20.0141195 -37.8992555  22.3525055 -22.3291445 -38.31835  25.54829 -25.526223 -31.925487  24.246604 -24.2178195 -30.5355765  23.2091695 -24.2194435 -31.5713875  24.2365 -23.187089 -31.576411  22.92471 -20.847955 -31.227335  21.9074835 -22.91104 -30.181477  22.934814 -21.8786855 -30.1865005  21.8973795 -21.8803095 -31.2223115  20.870049 -22.912664 -31.217288  22.944918 -22.909416 -29.145666  23.1652615 -21.083314 -34.7514245  22.1258615 -21.083205 -35.7909335  20.8411425 -19.809805 -34.3490525  21.872555 -18.773597 -34.353848  21.8805425 -19.809914 -33.3095435  23.1999515 -22.1194545 -33.680594  24.4846705 -23.3928545 -35.122475  25.550773 -23.392787 -34.05644  24.231364 -21.0832465 -33.6853895  24.2377415 -22.120371 -32.6418875  22.9183325 -19.8108305 -32.270837  21.88692 -20.8470385 -32.2660415  22.1406705 -25.286578 -31.5727525  23.222428 -25.2517885 -30.525783  20.8833075 -23.945009 -30.1716835  24.244087 -25.2858155 -29.470097  21.28656 -21.266502 -40.446939  20.020672 -20.0154765 -38.963852  21.2865525 -22.3305015 -39.3829465  22.352513 -21.265145 -39.3823425  25.3045395 -22.120046 -31.5754145  25.268701 -21.083593 -32.647706  25.298111 -20.0168735 -33.6850155  25.5512325 -22.3265005 -35.1222665  22.143174 -24.2187755 -32.638051  20.8595895 -21.879393 -32.261018  19.831223 -22.913261 -32.2555165  24.48513 -22.326568 -36.1883015  23.1705045 -23.186421 -32.6430745  25.2926865 -17.9142925 -35.7930205  21.0943335 -22.116865 -35.78880150000001  22.3525565 -23.3937115 -37.253732  23.418517 -22.328355 -37.253128  19.8096145 -20.843465 -34.3469205  25.312596 -24.2188795 -29.4685245  26.611765 -26.595279 -29.7929555  26.614282 -25.527283 -30.858435  24.479791 -26.5933575 -31.926852  23.4137955 -26.5926895 -32.9935155  24.4822945 -25.525555 -32.9921505  23.411292 -27.660492 -31.928217  25.5495315 -24.459505 -32.9909635  24.483536 -24.458837 -34.057627  18.781248 -21.877333 -34.341419  25.2741715 -23.1821345 -30.5436945  25.539498 -6.380854 -51.079648  25.26806 -4.231108 -49.5008325  24.2261115 -4.234064500000001 -50.539824  25.290143 -3.1703 -50.539557  22.912725 -2.087275 -50  24.223062 -5.275756 -49.501182  22.9096755 -3.1289665 -48.961358  22.906626 -4.170658 -47.922716  25.2875105 -5.274795 -48.4376945  24.2234215 -6.3385815 -48.4379965  25.5398575 -7.4436795 -50.0164625  25.540217 -8.506505000000001 -48.953277  25.54115 -10.631683 -46.827167  24.224013 -9.486280000000001 -45.289707  25.266356 -8.443809 -45.2898355  24.224064 -8.4427485 -46.333187  22.906978 -6.253814 -45.839207  22.906927 -7.2973455 -44.795727  22.906876 -8.340877000000001 -43.752247  21.056535 -18.9777295 -38.965736  20.016209 -18.9743535 -40.009438  18.745858 -16.682205 -39.571937  18.750321 -17.723328 -38.526351  19.786184 -16.685581 -38.528235  20.82651 -16.688957 -37.484533  19.790647 -17.726704 -37.48264899999999  25.542353 -12.756509 -44.701138  25.288856 -9.4847345 -44.2264095  25.2657685 -10.5511095 -43.183122  24.2246145 -10.548693 -44.2266925  25.5417515 -11.694096 -45.7641525  25.289099 -11.5921485 -42.118753  24.2246775 -12.6560145 -42.1193085  24.223805 -11.59375 -43.182445  25.5432255 -13.8187735 -43.6380015  25.544098 -14.881038 -42.574865  22.905257 -10.430991 -41.663752  24.2250145 -14.7640865 -40.0108985  25.2894405 -13.699593 -40.01096649999999  24.2236765 -13.7012585 -41.0750655  25.545436 -15.943866 -41.510698  25.546774 -17.006694 -40.446531  22.903255 -12.521479 -39.575266  22.122488 -18.9763725 -37.9011395  20.8298325 -17.7312225 -36.438945  23.417127 -19.135508 -40.447365  22.1218185 -17.9122325 -38.96594899999999  23.4177965 -20.199648 -39.3825555  22.3518435 -20.201005 -40.447152  25.549479 -19.132566 -38.317955  24.2264145 -17.9150905 -36.8584945  25.5505855 -20.19639 -37.253024  24.4839725 -20.198177 -38.3178505  23.1879945 -17.9107615 -37.901244  23.1589825 -16.8744855 -38.966532  24.483303 -19.134037 -39.38266  24.2251585 -16.8730145 -37.901827  22.900838 -14.613463 -37.485699  21.863674 -15.65121 -37.485116  24.2235975 -7.3801595 -47.396242  25.2667 -6.3375205 -47.395779  22.906802 -5.212236000000001 -46.8809615  25.288229 -7.3789155 -46.332855  24.223806 -15.8100785 -38.966115  25.264214 -14.7680925 -38.967693  22.9020465 -13.567471 -38.5304825  23.415182 -17.010101 -42.574717  22.1200755 -16.869475 -40.0104495  23.184899 -15.805068 -40.0100325  22.119103 -15.8067715 -41.0741255  23.4161545 -18.0728045 -41.511041  24.480978 -17.0083975 -41.510624  24.4819505 -18.071101 -40.446948  20.823024 -14.603442 -39.573534  25.264854 -12.659495 -41.07565200000001  25.264646 -16.874511 -36.860843  22.902094 -15.655539 -36.4423665  21.86493 -16.693286 -36.4417835  22.904256 -11.476235 -40.619509  23.1592185 -14.76579 -41.0749915  23.1834705 -13.697655 -42.118875  24.47964 -15.9455695 -42.574791  22.1190125 -14.7621865 -42.118801  20.822843 -12.514272 -41.662885  21.863049 -12.5178755 -40.6190755  21.8631395 -13.5624605 -39.5744  25.2899565 -15.8080315 -37.9020115  21.861931 -14.6084525 -38.5296165  21.0814925 -17.9088565 -40.009651  25.5481265 -18.06963 -39.382243  21.86405 -11.4726315 -41.6633185  20.824767 -15.6461995 -38.5290335  19.784441 -15.6428235 -39.5727355  22.9060665 -9.385934000000001 -42.7079995  20.8229335 -13.558857 -40.61820950000001  25.5406835 -9.569094 -47.890222  22.351323 -24.4596785 -36.1889985  21.284078 -25.526435 -36.189487  20.0382375 -24.2201465 -34.741616  22.3501885 -25.525661 -35.1241505  19.149006 -27.659263 -36.191731  17.940725 -26.3195015 -34.7397735  16.897913 -26.3186175 -35.7834695  16.909902 -27.353724 -34.736374  14.670798 -27.048185 -33.281017  15.689632 -24.978856 -34.331512  15.701621 -26.0139625 -33.2844165  14.658809 -26.0130785 -34.3281125  14.64682 -24.977972 -35.375208  16.732444 -24.97974 -33.287816  12.75472 -31.925384 -38.319896  12.691218 -29.4604185 -36.8483635  11.6167275 -29.489297 -37.893975  11.6256725 -30.526341 -36.847987  13.8202655 -30.8594615 -38.3202725  14.885811 -29.793539 -38.320649  12.682273 -28.4233745 -37.8943515  10.496625 -29.127298 -35.376078  10.48768 -28.090254 -36.422066  10.478735 -27.05321 -37.468054  17.014547 -29.792987 -36.192467  16.907538 -28.4206715 -33.6717905  15.8426725 -28.420586 -34.736742  15.839903 -29.487267 -33.67283  18.0794125 -29.7930725 -35.1275155  18.076643 -30.8597535 -34.0636035  19.144278 -29.793158 -34.062564  17.953718 -28.419612 -32.62667  16.9166825 -29.4565265 -32.626791  15.716978 -27.0471255 -32.2358965  16.763158 -27.046066 -31.190776  21.116936 -25.252333 -32.630731  21.1144325 -26.3201355 -31.5654325  18.817573 -24.979779 -31.202648  19.843811 -23.9462215 -31.209968  14.807363 -29.4566025 -34.736035  14.7941695 -28.422171 -35.7836605  12.573792 -27.051355 -35.374854  13.622295 -27.04977 -34.3279355  20.0270885 -23.1836215 -35.78929  21.2853115 -24.460468 -37.2542205  17.9287275 -25.284583 -35.78668949999999  19.008261 -25.2530875 -34.7386515  18.9962635 -24.218169 -35.7855675  20.216542 -26.592849 -36.19060899999999  16.708449 -22.909903 -35.381648  16.7204465 -23.9448215 -34.334732  17.019364 -27.66094 -38.319696  15.833092 -26.319456 -36.847452  14.7858325 -26.31981 -37.8943575  14.796578 -27.3561475 -36.847275  13.5995605 -24.978326 -36.4221135  13.610306 -26.0146635 -35.375031  12.5630465 -26.0150175 -36.4219365  12.552301 -24.97868 -37.469019  15.8306835 -27.3854795 -35.7838375  14.882228 -31.925416 -36.192356  13.72801 -29.4883855 -35.78360499999999  15.9483875 -30.8592015 -36.1924115  14.8840195 -30.8594775 -37.2565025  13.7298015 -28.422447 -36.8477515  15.950179 -29.793263 -37.256558  17.938361 -27.386449 -33.67519  19.146642 -28.7262105 -35.1271475  20.036116 -25.286585 -33.677299  22.348067 -26.5920995 -34.0598335  21.279835 -27.659312 -34.060853  20.048704 -26.3195455 -32.6317505  18.804985 -23.9468185 -32.2481965  18.0817765 -28.726125 -36.192099  19.0061395 -26.319526 -33.6743345  20.2144205 -27.6592875 -35.126292  20.2120565 -28.726235 -34.0617085  11.5352085 -28.0893265 -35.375466  13.818474 -31.9254 -37.25612599999999  19.0214965 -27.352689 -32.6258145  20.209023 -29.793724 -32.997253  21.2768015 -28.726801 -32.9963975  21.273768 -29.79429 -31.931942  20.0456705 -27.3870345 -31.567295  17.7903655 -26.0129225 -31.196712  22.3455635 -27.659902 -32.994535  15.9525875 -28.7272395 -38.3201725  17.0169555 -28.7269635 -37.2560815  13.719056 -27.3861095 -37.894834  11.515518 -26.015945 -37.4685365  11.5262635 -27.0522825 -36.421454  18.084185 -27.6601015 -37.2557135  17.7750085 -24.9797595 -32.245232  16.747801 -26.012903 -32.239296  17.7624205 -23.946799 -33.2907805  21.2819565 -26.5928735 -35.12517  15.6776345 -23.9439375 -35.378428  18.997497 -23.152202 -36.850301  20.2
[...]
<PointData  Scalars="p"> 
<DataArray  type="Float64"  Name="p"  format="ascii">8.9384323695297638e+00  8.9173773537423422e+00  8.9374045231320576e+00  8.9212723384577650e+00  8.9184139473734749e+00  8.8980509542416222e+00  8.9008606599489095e+00  8.9039955769946904e+00  8.9202053178201872e+00  8.9363789868723309e+00  8.8806373751562973e+00  8.8975247890145930e+00  8.9003026478519338e+00  8.8970019645559901e+00  8.9326412824467045e+00  8.9293463931015769e+00  8.9481781290263598e+00  8.9316018693124200e+00  8.9303580940839566e+00  8.9284830578057317e+00  8.9462089127848401e+00  8.9305640339410868e+00  8.9471741093093602e+00  8.9636945574222757e+00  8.9714431418644551e+00  8.9699560440704733e+00  8.9539801630375919e+00  8.9728319317610676e+00  8.9745150976922048e+00  8.9713221673430912e+00  8.9555991401079780e+00  8.9524526510000726e+00  8.9684694474150479e+00  8.9566163182283329e+00  8.9549667244482887e+00  8.8889256793013693e+00  8.8882968767245529e+00  8.9076922940731791e+00  8.8900383778117682e+00  8.8915498907359378e+00  8.9070693149338798e+00  8.8893948525158528e+00  8.9089294497889640e+00  8.9261944562326878e+00  8.8876690622758794e+00  8.9148937410851570e+00  8.9343483039437874e+00  8.9332848377160570e+00  8.9168534515893914e+00  8.9138203131536038e+00  8.9117250389035725e+00  8.9127733867583654e+00  8.8925847982217032e+00  8.8946116916307592e+00  8.8920663396223691e+00  8.8940683149003963e+00  8.9112079748381028e+00  8.9259188098277846e+00  8.9061701953349690e+00  8.9245477768150998e+00  8.8871923945815965e+00  8.9774623168099144e+00  8.9759880150243134e+00  8.9742763626942086e+00  8.9581076696186646e+00  8.8715359562642480e+00  8.8745467432454141e+00  8.8768080952587489e+00  8.8951002243960033e+00  8.9273386354064215e+00  8.9281848480829158e+00  8.9450769554915333e+00  8.9153850115100965e+00  8.9101041396194542e+00  8.8838081214667923e+00  8.9506897639692138e+00  8.9521935930198460e+00  8.9353419363020254e+00  8.9496604745952464e+00  8.8680728753693963e+00  8.8677720584131094e+00  8.8687056717369384e+00  8.9075603055404091e+00  8.9270444169421435e+00  8.9088489703360079e+00  8.9260257373655350e+00  8.8905283687522694e+00  8.9105956623635532e+00  8.9659046898948684e+00  8.8702141370607492e+00  8.9745923449590830e+00  8.9619023576216712e+00  8.9802869781920869e+00  8.9685581583349983e+00  8.9924691200023421e+00  8.9736895314246308e+00  8.9808323566310815e+00  8.9725738245239643e+00  8.9543287471888799e+00  8.9667389389129184e+00  8.9681208743750940e+00  8.9614406788032568e+00  8.9481964963340754e+00  8.9467752432967451e+00  8.9335357485986098e+00  8.9532167662255251e+00  8.9584445911099255e+00  8.9517869931088470e+00  8.9453518673387329e+00  8.9605446742502206e+00  8.9794905199055304e+00  8.9817864916332031e+00  8.9779901754068288e+00  8.9628075727603704e+00  8.9435138672815686e+00  8.9590264711520682e+00  8.9356883578995330e+00  8.9265149858488204e+00  8.9204533377941360e+00  8.9404265700725229e+00  8.9418246802720436e+00  8.9139143875209221e+00  8.9286185177153516e+00  8.9344508135117326e+00  8.9298139741864215e+00  8.9242344303587462e+00  8.9332184527509302e+00  8.9179809478550283e+00  8.9024878744330351e+00  8.9232080338296900e+00  8.9189606546212605e+00  8.9140264367292126e+00  8.9221877142425079e+00  8.9408263574783540e+00  8.9397690056035124e+00  8.9457564964645897e+00  8.9446334538185734e+00  8.9419113765779734e+00  8.9616202210474629e+00  8.9052510580402906e+00  8.9046210135204653e+00  8.9014466287898326e+00  8.9218586882105075e+00  8.9245492273778453e+00  8.9291333133862967e+00  8.9256836716000674e+00  8.9086914508247741e+00  8.9124198490916662e+00  8.9279659820421404e+00  8.9599654593889433e+00  8.9474552619648247e+00  8.9653563050771812e+00  8.9400776937864030e+00  8.9132202642669291e+00  8.8977020412841448e+00  8.9171362608831899e+00  8.9544848435564255e+00  8.9487280445628379e+00  8.9331590304899713e+00  8.9532208203193928e+00  8.9499528108640032e+00  8.9344393864576794e+00  8.9298878056830926e+00  8.9519606688500524e+00  8.9084460333404696e+00  8.8883827809193452e+00  8.9080244920810561e+00  8.9239249470373565e+00  8.9275555037178567e+00  8.9383676328453507e+00  8.9430813763755008e+00  8.9393351889362034e+00  8.9579339396713937e+00  8.9616120449740908e+00  8.9420755414442503e+00  8.9370539565495495e+00  8.8924093116069809e+00  8.9323649688949764e+00  8.9639162830863892e+00  8.9094502971852716e+00  8.9473760085635874e+00  8.9475733162183921e+00  8.9668698897255137e+00  8.9391588149079109e+00  8.9566381682808167e+00  8.9547546642372300e+00  8.9498197461808804e+00  8.9669023011245201e+00  8.9652990956222727e+00  8.9478319262041524e+00  9.0007653375901189e+00  8.9986362994876608e+00  9.0163619782087796e+00  9.0148612735026070e+00  9.0289236115131946e+00  9.0142575021136562e+00  9.0127668037468940e+00  9.0301995796215095e+00  9.0317838191845841e+00  8.9965038714577492e+00  9.1005281273173022e+00  9.0815222474154620e+00  9.0984066124953937e+00  9.0973977304417648e+00  9.0846930622512474e+00  9.0687784885014544e+00  9.0827260855919008e+00  9.0942594262330676e+00  9.0952707869406222e+00  9.0965370395148426e+00  9.0341762825076071e+00  9.0138955684762792e+00  9.0315527477084139e+00  9.0308022371230194e+00  9.0165551049220571e+00  9.0159259995405332e+00  8.9987257284362716e+00  8.9963456018986108e+00  9.0130922960410853e+00  9.0115433678399750e+00  8.9939606525693563e+00  8.9444325752568865e+00  8.9432714969197757e+00  8.9603161116600631e+00  8.9433175207439639e+00  9.0476348393740391e+00  9.0487335204462145e+00  9.0631524996406316e+00  9.0461393647830981e+00  8.9675260726248389e+00  8.9689881605172221e+00  9.0003654351582600e+00  8.9817181199053611e+00  8.9836979544017659e+00  8.9838874002032050e+00  9.0002748765703160e+00  8.9982233293751932e+00  9.0366611456154153e+00  9.0342247889247709e+00  9.0515638198624320e+00  9.0499095746168319e+00  9.0491554335985747e+00  9.0475094538417054e+00  9.0645842402616967e+00  9.0662993825986344e+00  9.0328327614546069e+00  9.0671039260631368e+00  9.0649912879323935e+00  9.0506959924719190e+00  9.0677964046519381e+00  9.0659687216881828e+00  9.0515813337388540e+00  8.9974528647465188e+00  8.9995701236394492e+00  8.9636223058110307e+00  8.9462546428179763e+00  8.9638907975360524e+00  8.9621047086282726e+00  8.9618237327760539e+00  9.0175266330511086e+00  8.9802909154181521e+00  8.9824488495774908e+00  8.9813791302966806e+00  9.0787460507031650e+00  9.0839054885908741e+00  8.9789589357790085e+00  8.9806891114003200e+00  8.9629736179935442e+00  8.9624423939975237e+00  8.9611993545553208e+00  8.9772042945118855e+00  8.9450820662433230e+00  9.0527616576351697e+00  9.0352589565869348e+00  9.0674027521814295e+00  9.0814465057754461e+00  9.0799472701762749e+00  9.0188316239841804e+00  8.9785260463013365e+00  8.9950635461540980e+00  8.9801498849013601e+00  8.9652067777143341e+00  9.0160685307761224e+00  8.9858545102305687e+00  8.9878629452717913e+00  9.0042090651253037e+00  9.0022430824640356e+00  8.9856896345812913e+00  9.1137032335038537e+00  9.1267706270746860e+00  9.1116775567424710e+00  9.1106054289346545e+00  9.0777466537708076e+00  9.0179966837522336e+00  9.0023144513281448e+00  9.0204761547795105e+00  8.9821128612253123e+00  8.9844072108481434e+00  8.9443218714216304e+00  9.1332052265155195e+00  9.1299930641999385e+00  9.1450391775528370e+00  9.1292422089222391e+00  9.2593687041444888e+00  9.2358981430000444e+00  9.2358007253244487e+00  9.2214187531119443e+00  9.2354801203975061e+00  9.2186393770300157e+00  9.2189303795913773e+00  9.2192624514428498e+00  9.1945866925711410e+00  9.1920240355349101e+00  9.1798515261029809e+00  9.1951429143594208e+00  9.1958751885203753e+00  9.1773149909606460e+00  9.1927670389252754e+00  9.1806222629205738e+00  9.1650576434843458e+00  9.1895646895923200e+00  9.0090500345229092e+00  9.0046173389206956e+00  8.9885008262828006e+00  9.0071843620119747e+00  9.0064611339615386e+00  8.9903903296777514e+00  9.0053175185468177e+00  9.1609938991145992e+00  9.1617896108599179e+00  9.1764733387372424e+00  9.1642708269348905e+00  9.1880920939011190e+00  9.1732611894031439e+00  9.1758683252725994e+00  9.1584992877567970e+00  9.1025126292050587e+00  9.0995287278854029e+00  9.1159203992453879e+00  9.1146281464792107e+00  9.1129709346303649e+00  9.1278643910379902e+00  9.1291896391578007e+00  9.1459015040054492e+00  9.1427274321885843e+00  9.1576168510245850e+00  9.1310798781942069e+00  9.1438449000335886e+00  9.1353745305155876e+00  9.1322874642634613e+00  9.1468954736406172e+00  9.1341705392612500e+00  9.1492390042539355e+00  9.1502234756472287e+00  9.1628922969302096e+00  9.1482257917930827e+00  9.1596176873394217e+00  9.1609455712437455e+00  8.9913668387340024e+00  8.9899376467148997e+00  9.0026340761913630e+00  8.9870308171861311e+00  9.2712733328767474e+00  9.2829211816117478e+00  9.2696831297621678e+00  9.2698021634003442e+00  9.2822693096925022e+00  9.2949946463504691e+00  9.2827341716027796e+00  9.2596543530405775e+00  9.2593453374108456e+00  9.2968868800539735e+00  9.2824745562711062e+00  9.2820705128407859e+00  9.2991035288912620e+00  9.1055835139360806e+00  9.1027593311988042e+00  9.1191710671488693e+00  9.1173591120389261e+00  9.1163829126211162e+00  9.1145728846465577e+00  9.1307666581548457e+00  9.1325959463756590e+00  9.0999276665547999e+00  9.3119749003378001e+00  9.2971532585268690e+00  9.3092497231737639e+00  9.2953619488758257e+00  9.3241728016380119e+00  9.0404464101688866e+00  9.0361429394129917e+00  9.0533611748897158e+00  9.0381799576217805e+00  9.0383947467235082e+00  9.0359100245313080e+00  9.0511342592781521e+00  9.2593162043297390e+00  9.2593149229650074e+00  9.2712103629273290e+00  9.2710057675328059e+00  9.2489307366479192e+00  9.2695854707080656e+00  9.2473415626136148e+00  9.2593389155444594e+00  9.2554483252663289e+00  9.2631758340466952e+00  9.2631412465550085e+00  9.1741128739014517e+00  9.1887574468999187e+00  9.2236898522311783e+00  9.2222644543425520e+00  9.2216417324707542e+00  9.2359205253355210e+00  9.2365261537921253e+00  9.2363499477565689e+00  9.2198221897184656e+00  9.2204273146605082e+00  9.1913856152663964e+00  9.1909344191087552e+00  9.2357731226853250e+00  9.1782868971609499e+00  9.1815789620524093e+00  9.1672527092833391e+00  9.1660448179196461e+00  9.0101502555989654e+00  8.9946184865925876e+00  8.9932779275912385e+00  9.0115227077824613e+00  9.0082633236250729e+00  9.2593378511009750e+00  9.2472014325164746e+00  9.2593156597413167e+00  9.2554267335096263e+00  9.2632158245641971e+00  9.2488276101803137e+00  9.2487494105374761e+00  9.1641109128717240e+00  9.1795318073446737e+00  9.1764649763048904e+00  9.1752075967007016e+00  9.1905734112331174e+00  9.1917635002773572e+00  9.0709597500690613e+00  9.0556093376332214e+00  9.0560559056503784e+00  9.0716050769663212e+00  9.0689551202624621e+00  9.0705834753383705e+00  9.0682981765183701e+00  8.9931616080141605e+00  9.0252023882685766e+00  9.0233586320649906e+00  9.0263468535949318e+00  9.0411365672084756e+00  9.3114529350267272e+00  9.2963826928785664e+00  9.3087216605890060e+00  9.3228461475736459e+00  9.3107866718696197e+00  9.2986343410854833e+00  9.2981147713212842e+00  9.0840597785811550e+00  9.0700449951261195e+00  9.0542508321720163e+00  9.0406550668273606e+00  9.0533695845705875e+00  9.0383722705734222e+00  9.0558813258213782e+00  9.1190567451202966e+00  9.1204927455935305e+00  9.1039110635466312e+00  9.2820328840051296e+00  9.2070892434166325e+00  9.2099885396499541e+00  9.2078437031244356e+00  9.1937415003493239e+00  9.2058628298248824e+00  9.2049450256949559e+00  9.1451816048913379e+00  9.1010912006574518e+00  9.0336939584712272e+00  9.0870866886489114e+00  9.0858481688056116e+00  9.0981006029719040e+00  9.1385485792418191e+00  9.1338583171974790e+00  9.1355780980197654e+00  9.1496921001741445e+00  9.1368301734927080e+00  9.1467652272417101e+00  9.2823147826249404e+00  9.2817015434836723e+00  9.2945854525727665e+00  9.2940222755144735e+00  9.2041933422759428e+00  9.2065804739355599e+00  9.2094765226185622e+00  9.0152362381391296e+00  9.0281570156069453e+00  9.0119812552688909e+00  9.0303919825404790e+00  9.0455127133790167e+00  9.0433259163791071e+00  9.0274187430837340e+00  9.2824809949873845e+00  9.0201603475606387e+00  9.0224575869260200e+00  9.2035815519998589e+00  9.1169607418531111e+00  9.1178818980770302e+00  9.1013892595836907e+00  9.0756336347592477e+00  9.0877575851198849e+00  9.0734703762783511e+00  9.0906290766447899e+00  9.0887146625830013e+00  9.2820311806130036e+00  9.2959204166569958e+00  9.0731110662690160e+00  9.0581680023610343e+00  9.0580243887232363e+00  9.0428228833702349e+00  9.0605950725670805e+00  9.0182171175944763e+00  9.0206412080996277e+00  9.0224648729752648e+00  9.2231076928876288e+00  9.2061504222177675e+00  9.2090820254406953e+00  9.2031623716067532e+00  9.0832293002794149e+00  9.0852762104491660e+00  9.1221954091381559e+00  9.0247765569815499e+00  9.1514942314352439e+00  9.1485721739503543e+00  9.1624904027927183e+00  9.1642879160149082e+00  9.1725590656003479e+00  9.0857516270622618e+00  9.2233310066281859e+00  9.2364006980005406e+00  9.2362051126205333e+00  9.2594167972559358e+00  9.0133795562517900e+00  8.9964986587157494e+00  9.3235967409457903e+00  9.1514451379031154e+00  9.1529019776680141e+00  9.1656388777176296e+00  9.1779760802457471e+00  9.3080667607747856e+00  9.3833762282053161e+00  9.3846846011752483e+00  9.3860763721880609e+00  9.3702629437889442e+00  9.3572869339421310e+00  9.3715193553343195e+00  9.3729240361629547e+00  9.3887848824589160e+00  9.3873902442484543e+00  9.3857427765551762e+00  9.3537050557282253e+00  9.3401959749582879e+00  9.3556040706322783e+00  9.3411836916613140e+00  9.3526997192503316e+00  9.3514750834464557e+00  9.3543701489702595e+00  9.3286718434200910e+00  9.3430279207028892e+00  9.4430352238730428e+00  9.4138359929936755e+00  9.4306753730921642e+00  9.4285657675855106e+00  9.4280646267126382e+00  9.4131347819443416e+00  9.4157002130481651e+00  9.4142784913386688e+00  9.4164132752322338e+00  9.4182715850678562e+00  9.3565526053155210e+00  9.3439659306941625e+00  9.3594192676239736e+00  9.3584583351908410e+00  9.3248365084659852e+00  9.3257166637417512e+00  9.3126211906919920e+00  9.3134321653263488e+00  9.3277603817534391e+00  9.3266661586698891e+00  9.3993547572242804e+00  9.4009847976895973e+00  9.4018872850440189e+00  9.4035121928901635e+00  9.3685326112041842e+00  9.3672936749418447e+00  9.3982416403589237e+00  9.3818981448017169e+00  9.3801576188058604e+00  9.3829449810058385e+00  9.3965168490809710e+00  9.3973574198539058e+00  9.4111616081937317e+00  9.3945169372628925e+00  9.4089005943169344e+00  9.4115859987857551e+00  9.3999965572966957e+00  9.3371456163310107e+00  9.3381197609624405e+00  9.3264759069768672e+00  9.3141080175456992e+00  9.4258380616999826e+00  9.3389070929236269e+00  9.4454900135680990e+00  9.4430874817569403e+00  9.4428823972645528e+00  9.4309907645402742e+00  9.4455605772067006e+00  9.4285607349776068e+00  9.4479491373252458e+00  9.3687762750737882e+00  9.4330866249531180e+00  9.3714372674527091e+00  9.3741015579735070e+00  9.3658145010109290e+00  9.3390459520657352e+00  9.3418679902184181e+00  9.4604476322967237e+00  9.4770816671512783e+00  9.4643349280802767e+00  9.4596180851736289e+00  9.4810653878033282e+00  9.4765033076038616e+00  9.4637548314150806e+00  9.4680805442631879e+00  9.4939375246209838e+00  9.4537116950618909e+00  9.4778291280910132e+00  9.4931774485854827e+00  9.4964158876444511e+00  9.4912977524950009e+00  9.5046932769467976e+00  9.5121021736440223e+00  9.5066347405381890e+00  9.5100988816839340e+00  9.5153322885861886e+00  9.5086243814658484e+00  9.6286073580194795e+00  9.6187876076923651e+00  9.6299197141626216e+00  9.6100105959369699e+00  9.6175358392172381e+00  9.6061281190890409e+00  9.5990728677078874e+00  9.5914040339465672e+00  9.6109614268769086e+00  9.6310625174151028e+00  9.5262583264762632e+00  9.5156783141064842e+00  9.5039772689409290e+00  9.5252864774784847e+00  9.5103975238278533e+00  9.4998469484638672e+00  9.4941958542046692e+00  9.5265588307122151e+00  9.5080071327120379e+00  9.4881723302202445e+00  9.6228891225889317e+00  9.6242038339534783e+00  9.6039496285429582e+00  9.6160704290921135e+00  9.6090679293052563e+00  9.6174051341527651e+00  9.5973366413850627e+00  9.5852753458636695e+00  9.6051832355188758e+00  9.6255135331312243e+00  9.5822520419461537e+00  9.5837447130788984e+00  9.5957119801312647e+00  9.6023065644502914e+00  9.4959379485280362e+00  9.4981703051851767e+00  9.4838314318511578e+00  9.4799685097900923e+00  9.4642008888450508e+00  9.4821708511058560e+00  9.4680591988127585e+00  9.4716308902215829e+00  9.4860069527375117e+00  9.5004033266956540e+00  9.5724124488959692e+00  9.5898046732457658e+00  9.5719006401711066e+00  9.5807732993994783e+00  9.5807678642579202e+00  9.5709785272294639e+00  9.5637862692027316e+00  9.5545624761497638e+00  9.5891543247681330e+00  9.5891447498011360e+00  9.5719227439600765e+00  9.5719540398114429e+00  9.5541757629616360e+00  9.5513796093956493e+00  9.5558852599951170e+00  9.5545511397579403e+00  9.5542065092434747e+00  9.5709831942765078e+00  9.5637923525055779e+00  9.5674732670430434e+00  9.5684875992766472e+00  9.5795465752374067e+00  9.5611450647334379e+00  9.5612117554773839e+00  9.5720400645501478e+00  9.5808627627891561e+00  9.5696446470799366e+00  9.5303678793704858e+00  9.5317404360806499e+00  9.5199677137557455e+00  9.5292388743858929e+00  9.5302795309655224e+00  9.5206905447343253e+00  9.5333336006400486e+00  9.5079051095486147e+00  9.5162632182538776e+00  9.5903605563983110e+00  9.5903600320943028e+00  9.4419998803114478e+00  9.4618481319108056e+00  9.4436811249488617e+00  9.4563972480060308e+00  9.4596506702700225e+00  9.4748165484652187e+00  9.4711624657567519e+00  9.4583589107333701e+00  9.4455588570729212e+00  9.4485149743237482e+00  9.4643409482903813e+00  9.4463791886361363e+00  9.4508211368867130e+00  9.4664365785640285e+00  9.4799838550465108e+00  9.4638597600412222e+00  9.4821863656262177e+00  9.4768899961919590e+00  9.6092005867230945e+00  9.6084409071945274e+00  9.6089643200030537e+00  9.5993145934633528e+00  9.6189573998470301e+00  9.6290630153216004e+00  9.6189546239107031e+00  9.6286188124754997e+00  9.5993150245320766e+00  9.6084465213130308e+00  9.6100111866673075e+00  9.4873498123786764e+00  9.5083637463278432e+00  9.4940091042361576e+00  9.4895970332535526e+00  9.5105227967620340e+00  9.5060722750872699e+00  9.4917787020341020e+00  9.5250977907212686e+00  9.4918515551301184e+00  9.6299212752779102e+00  9.5193573707286170e+00  9.5204033300435302e+00  9.5021236603907280e+00  9.5143279760986790e+00  9.5023539445551553e+00  9.5139162282248382e+00  9.4902686981400119e+00  9.4782872771970386e+00  9.5017264970253006e+00  9.5216521627336181e+00  9.5606028181134963e+00  9.5785517954861792e+00  9.6075850766855115e+00  9.5879452314049995e+00  9.5892212965761754e+00  9.6004295965818525e+00  9.5433859204672959e+00  9.5496139073435966e+00  9.5443049077881827e+00  9.4986900751278096e+00  9.4848998133325466e+00  9.5013589318948544e+00  9.4826858394672442e+00  9.4531893336156472e+00  9.4508048396185007e+00  9.4688973236407232e+00  9.4556035454890761e+00  9.4695214024397760e+00  9.4821566428661832e+00  9.4644206688095185e+00  9.4769355944584159e+00  9.4965813328577173e+00  9.4838948207297165e+00  9.4517490946493474e+00  9.4415245262083420e+00  9.4292546522995568e+00  9.4518656464540243e+00  9.5370798099895548e+00  9.5380956016344012e+00  9.5230690366328972e+00  9.5333361993781374e+00  9.5433870524230322e+00  9.5496215016406580e+00  9.5443085929428459e+00  9.5611484940074440e+00  9.5606088454633262e+00  9.5674843169920205e+00  9.5501259185416210e+00  9.5323085146225264e+00  9.5976213149825238e+00  9.5864055676929425e+00  9.4593094631577532e+00  9.4656204003175137e+00  9.4617511266620475e+00  9.4774828115370724e+00  9.4813592966674207e+00  9.4631936118294941e+00  9.4667978416468994e+00  9.4351682975126128e+00  9.4470033986701711e+00  9.4509317370219001e+00  9