<?xml version="1.0"?>
<VTKFile type="UnstructuredGrid"  version="0.1"  >
<UnstructuredGrid>
<Piece  NumberOfPoints="6507" NumberOfCells="26613">
<Points>
<DataArray  type="Float64"  NumberOfComponents="3"  format="ascii">-31.920564 17.014714 34.064721  -30.5374275 15.842053 32.620519  -31.57104 14.805916 32.6230435  -30.5362415 14.80113 33.662628  -29.151919 12.587546 33.260535  -29.153105 13.628469 32.218426  -30.1867175 12.592332 32.2209505  -31.221516 12.597118 31.181366  -30.1879035 13.633255 31.1788415  -29.154291 14.669392 31.176317  -36.184797 17.014607 29.800596  -34.742247 16.912066 27.345687  -34.740411 15.8477705 28.4118185  -35.7817685 15.840805 27.3774265  -36.186633 18.0789025 28.7344645  -36.188469 19.143198 27.668333  -35.37874 14.667003 24.954257  -34.3373825 14.6739685 25.988649  -33.296025 14.680934 27.023041  -29.788859 12.760046 40.451096  -27.375527 12.6761435 38.9483295  -28.4403485 12.675973 37.8836785  -28.4403185 11.6123185 38.9473635  -28.7240975 14.8875255 39.38837700000001  -28.7240675 13.823871 40.452062  -29.788889 13.8237005 39.387411  -29.788919 14.887355 38.323726  -27.659276 14.887696 40.453028  -27.091778 10.464591 37.443631  -34.052527 17.013771 31.933702  -32.635526 15.850709 30.5137655  -33.675033 14.8044175 30.52055  -32.6370215 14.8054445 31.557534  -31.2200205 13.6423825 30.1375975  -32.2595275 12.596091 30.144382  -33.297539 12.595064 29.107398  -32.258032 13.6413555 29.1006135  -31.218525 14.687647 29.093829  -31.918349 12.759863 38.321788  -30.5387895 12.685981 35.77522949999999  -29.4737095 12.686511 36.8397795  -30.5384245 11.622765 36.83881049999999  -31.918714 13.823079 37.258207  -30.853999 14.886825 37.259176  -30.853634 13.823609 38.322757  -31.919079 14.886295 36.194626  -29.1585 10.485667 35.355833  -28.4398485 14.7864375 35.7737145  -29.5047145 13.722262 35.7730235  -28.4396345 13.722792 36.8375735  -29.789133 15.9510005 37.259867  -30.854213 15.9504705 36.195317  -29.789347 17.014646 36.196008  -27.09035 12.558229 35.351421  -29.470633 14.801096 34.7282715  -30.535499 13.7369205 34.7275805  -28.1211345 12.5728875 34.305978  -28.124425 11.521948 35.353627  -29.1552095 11.5366065 34.308184  -25.531858 12.761524 44.706619  -24.2389715 12.6539785 42.10705  -25.3038965 11.5903315 42.105772  -24.239731 11.5906185 43.169651  -25.5310985 13.824884 43.644018  -26.595264 13.824597 42.580139  -26.5960235 12.761237 43.64274  -27.660189 12.76095 42.578861  -25.530339 14.888244 42.581417  -22.947604 10.419713 41.632683  -31.918436 10.633526 40.448038  -31.6062215 9.507306 37.8864725  -30.5417555 9.507439 38.9508055  -31.5803125 8.4636555 38.95603199999999  -32.982902 10.633393 39.383705  -34.047368 10.63326 38.319372  -32.6447785 8.4635225 37.891699  -31.242189 6.293785 37.464026  -30.203632 7.3375685 37.4587995  -29.165075 8.381352 37.453573  -38.305473 8.507241 36.187286  -36.8497555 8.470231999999999 33.6800125  -37.89009249999999 7.4041255 33.705782  -36.848916 7.4069545 34.7441295  -38.3063125 9.5705185 35.123169  -38.307152 10.633796 34.059052  -37.890932 8.467403000000001 32.641665  -35.392359 6.306668 33.300973  -36.4335355 6.303839 32.2626255  -37.474712 6.30101 31.224278  -33.67636400000001 17.950782 27.3728535  -34.743078 17.95048 26.306442  -35.121755 19.1435 28.7347445  -34.055041 19.143802 29.801156  -33.675533 16.912368 28.4120985  -33.29685600000001 15.719348 25.983796  -33.297687 16.757762 24.944551  -25.2769995 14.7752445 38.947756  -26.3418425 13.71079 38.9473675  -25.3070725 13.698691 39.9942365  -26.594433 15.9521505 40.4534165  -25.52959 17.016605 40.453805  -24.2422295 14.7631455 39.994625  -22.954869 12.509686 39.535445  -23.989639 12.521785 38.488576  -25.024409 12.533884 37.441707  -34.050043 14.886578 34.063379  -33.673791 13.740821 31.5853885  -34.051285 15.9501745 32.9985405  -35.1157535 14.8868565 32.99739  -36.181464 14.887135 31.931401  -34.7395015 13.7410995 30.5193995  -35.1169955 15.950453 31.9325515  -31.5754815 10.580828 36.84369049999999  -32.639991 9.517526499999999 36.8424825  -32.9828585 11.6965615 38.32058  -30.541712 10.5706075 37.8876805  -30.1988445 8.391572499999999 36.409583  -31.232614 8.401793 35.365593  -36.176571 8.507047 38.316382  -34.7472575 8.4671105 35.7856315  -35.811474 7.404 35.7845255  -34.747023 7.403903 36.8490735  -36.1768055 9.570254500000001 37.25294  -37.241022 8.507144 37.251834  -37.2412565 9.570351500000001 36.188392  -36.17704 10.633462 36.189498  -33.317475 6.300759 35.381765  -36.855152 6.3529 35.7919485  -37.8958865 6.352287 34.7518265  -37.4863 4.197333 33.316367  -35.398595 5.252613500000001 34.348792  -36.4393295 5.2520005 33.30867  -36.4455655 4.197946 34.356489  -35.404831 4.198559 35.396611  -29.1617875 9.4335095 36.404703  -30.195557 9.443729999999999 35.360713  -35.78125199999999 9.519058000000001 33.69969  -35.7846995 8.470065 34.7452355  -37.242096 10.633629 35.124275  -36.846308 9.519225 32.634467  -35.3889115 7.355661 32.2554275  -35.385464 8.404654000000001 31.209882  -34.04839 12.759966 36.191644  -32.638272 11.629099 34.732629  -31.603445 11.6228165 35.77373849999999  -32.640502 10.5808795 35.77861849999999  -31.230384 9.4500125 34.3196035  -30.193327 10.4919495 34.3147235  -31.228154 10.498232 33.273614  -32.98336949999999 12.7599145 37.256716  -31.570468 16.9154165 30.514116  -31.603409 15.8415815 31.5550095  -32.987469 18.0784785 31.9340525  -31.922411 19.143186 31.934403  -30.538351 16.906289 31.55536  -30.186408 14.6785195 30.135073  -27.406664 13.7106195 37.8827165  -26.0580935 11.4992375 37.442669  -27.3746055 14.7865895 36.838805  -27.4073875 15.82119 35.7714235  -28.724104 17.014798 37.2610985  -27.658861 17.01495 38.326189  -26.3421445 15.821342 36.836514  -26.057889 13.5929815 35.34913  -25.025428 14.627734 35.346839  -28.7242765 18.07973 36.1959945  -26.342317 16.886274 35.77141  -27.6590335 18.079882 37.261085  -27.659206 19.144814 36.195981  -32.6390985 12.692405 33.6684965  -33.7034065 11.6290065 33.667587  -34.0492165 13.823272 35.1275115  -35.1135245 12.7598735 35.126602  -36.178659 12.759781 34.06156  -35.114351 13.8231795 34.0624695  -26.3409495 12.663142 39.9959085  -25.022623 10.438588 39.538789  -25.023516 11.486236 38.490248  -26.0572005 10.4515895 38.49121  -34.741168 14.8048355 29.453997  -35.777579 13.739936 29.482485  -36.1831305 15.950871 30.8659985  -35.7792455 14.803672 28.4170825  -35.373694 12.592737 27.033569  -34.3356165 12.5939005 28.0704835  -34.7426035 10.5836475 33.673749  -33.677469 10.58374 34.738791  -34.741794 9.520488 34.737718  -36.1778495 11.6966215 35.125529  -35.11271499999999 11.696714 36.190571  -33.306548 8.407514000000001 33.285938  -37.8861905 9.517034500000001 31.596775  -38.308399 11.69704 32.994561  -39.37217800000001 10.6338915 32.9939305  -40.437204 10.633987 31.928809  -37.8874375 10.5802785 30.532284  -38.9512165 9.51713 30.5316535  -39.373425 11.6971355 31.9294395  -38.309646 12.760284 31.93007  -37.465229 8.400273 29.134498  -31.9214875 18.07895 32.999562  -32.9865455 17.0142425 32.9992115  -29.790264 19.142968 34.066768  -29.5057025 17.9415505 31.552747  -28.439629 17.9414415 32.6189295  -29.4722775 16.90618 32.6215425  -30.8563375 19.143077 33.0005855  -28.1216425 15.7046535 31.173704  -27.088994 16.739915 31.171091  -28.4388765 15.8338065 34.7273175  -27.089378 13.605598 34.305024  -28.1201625 13.6202565 33.259581  -27.088406 14.652967 33.258627  -34.3382135 15.7123825 24.949404  -33.704827 9.5176275 35.7775455  -33.3120115 7.354136500000001 34.3338515  -32.2750445 7.351276 35.373679  -32.269581 8.4046535 34.3257655  -34.3494535 7.357091 33.2934555  -34.354917 6.303713500000001 34.341369  -34.04787899999999 11.696613 37.255508  -31.600981 13.737062 33.661957  -31.9198215 15.9505045 35.1296735  -32.984561 14.8864365 35.1290025  -32.9853035 15.950646 34.06404999999999  -33.674276 15.8473525 29.4783715  -35.118662 17.014189 30.867149  -33.296782 13.637999 28.0652195  -32.9837345 13.8231305 36.193135  -34.047584 8.50695 40.445466  -32.6448865 7.4003675 38.954746  -34.047476 9.570105 39.382419  -32.98301 9.570238 40.446752  -34.739196 12.698752 31.562052  -35.7781805 11.6310405 31.590779  -34.7377935 11.635075 32.6271315  -36.1800615 13.823458 32.9964805  -35.779583 12.6947175 30.5256995  -33.296928 10.510369 31.192703  -34.337315 10.5063345 30.1563505  -35.377702 10.5023 29.119998  -31.6049825 17.9482705 29.4467465  -32.636783 16.9157245 29.4474925  -32.988726 19.143494 30.8677795  -30.5386675 17.9479625 30.51337  -30.1867245 15.720193 29.093083  -29.154924 16.752739 29.092337  -34.053784 18.0787865 30.867429  -32.6357795 13.741848 32.6223725  -33.6734855 12.6984735 32.628041  -33.2972335 11.5527165 30.1500505  -32.259222 11.5537435 31.1870345  -38.313328 14.887006 29.799666  -36.843511 13.7398715 28.4166175  -36.845515 12.694653 29.459832  -37.8882655 12.6877075 28.4240275  -37.463203 10.488409 27.048389  -36.4184485 11.540573 27.040979  -36.4204525 10.4953545 28.0841935  -35.375698 11.5475185 28.0767835  -38.305409 6.380619 38.313971  -35.790701 6.352803 36.8564965  -36.85512 5.289589 36.855291  -38.305441 7.44393 37.2506285  -37.24099 7.443833 38.3151765  -34.750861 6.352009 37.89713  -33.321313 5.248865 36.4298215  -34.361153 5.249659 35.389188  -34.364991 4.197765 36.4372445  -33.325151 4.196971 37.477878  -33.70938 7.400416 37.890204  -33.6863675 6.3519605 38.961672  -35.1120775 8.5069985 39.380924  -32.28367 5.245378 37.470952  -32.279832 6.297272 36.4228955  -32.6407935 17.94913 28.410076  -32.2612855 15.717696 27.0210185  -32.2621165 16.75611 25.9817735  -31.226546 16.754458 27.018996  -37.460951 12.574823 24.964226  -36.4198455 13.620913 24.9592415  -36.4173225 12.58378 25.9988975  -36.845276 14.8040965 27.350627  -35.376217 13.62987 25.993913  -35.7820615 10.5822175 32.635721  -35.381583 9.453476999999999 30.16494  -34.341196 9.457511500000001 31.2012925  -33.301738 9.458941500000002 32.23932050000001  -34.346006 8.406084 32.24791  -32.267351 9.452873 33.279776  -32.262541 10.5043005 32.2331585  -38.955958 8.467
[...]
<PointData  Scalars="p"> 
<DataArray  type="Float64"  Name="p"  format="ascii">9.7354698949569531e+00  9.7350966668352346e+00  9.7530789341379727e+00  9.7302391420309409e+00  9.7246637306268209e+00  9.7299314732857276e+00  9.7474685540913093e+00  9.7707867343249770e+00  9.7527464402942385e+00  9.7347130408716946e+00  9.8328593960838759e+00  9.8350691003754545e+00  9.8309132916642010e+00  9.8560073447525376e+00  9.8371143262431815e+00  9.8406473440448252e+00  9.8795943482191522e+00  9.8539767378572147e+00  9.8289596835858042e+00  9.6673104996711778e+00  9.6523969331497543e+00  9.6743191706594605e+00  9.6681168585864015e+00  9.6574694771619622e+00  9.6516676087636402e+00  9.6735815071487963e+00  9.6794557656888696e+00  9.6359373044041732e+00  9.6689116026068866e+00  9.7830465129083155e+00  9.7818818487441259e+00  9.8010505292631276e+00  9.7771108182816384e+00  9.7760254559133468e+00  9.7946859829349524e+00  9.8191526155268143e+00  9.7999179266016601e+00  9.7807076867798752e+00  9.7124177868046448e+00  9.7190084693801495e+00  9.6961136517660176e+00  9.7126320712018295e+00  9.7188795798905687e+00  9.7019219189286421e+00  9.6959760596731819e+00  9.7248877585297802e+00  9.7128313104079318e+00  9.6854062230366313e+00  9.7024837833131876e+00  9.6800168184882889e+00  9.6849142703126656e+00  9.7074192999519315e+00  9.6899309488719965e+00  9.6805672628769415e+00  9.7072491008459494e+00  9.7247825715018301e+00  9.7023826243952520e+00  9.6967327045134173e+00  9.7189723106902139e+00  9.5827658801024764e+00  9.5902709459385935e+00  9.6049893994952775e+00  9.5844619556927455e+00  9.5886122027439651e+00  9.6092085406046213e+00  9.6032579149156181e+00  9.6241627158075449e+00  9.5941631390473532e+00  9.5861549382168345e+00  9.6982519109390193e+00  9.7218556596536203e+00  9.6987729315719964e+00  9.7136849246809742e+00  9.7213267140044977e+00  9.7449656171861516e+00  9.7371549555680037e+00  9.7291097142441121e+00  9.7142789298391730e+00  9.6992781934262897e+00  9.8278269945768439e+00  9.8359559777426018e+00  9.8527119890081849e+00  9.8268587942694019e+00  9.8370565040160969e+00  9.8457722031105934e+00  9.8620133510715835e+00  9.8258664053911033e+00  9.8516853806260745e+00  9.8782046761944571e+00  9.8135224353130752e+00  9.8384067624924594e+00  9.8156816534459423e+00  9.7912575956246783e+00  9.8100369578688884e+00  9.8329035681431538e+00  9.8361650608257030e+00  9.6212087261267545e+00  9.6370674741131133e+00  9.6164793014846506e+00  9.6201460131169387e+00  9.6043105179830501e+00  9.6009725290866985e+00  9.5973742897127288e+00  9.6175873979678670e+00  9.6381901008202657e+00  9.7724418919264355e+00  9.7955611936920590e+00  9.7780307699853992e+00  9.7970757848128809e+00  9.8223183261041385e+00  9.8207419011141699e+00  9.8026710401878585e+00  9.7285891226496801e+00  9.7448859316689411e+00  9.7287558299264756e+00  9.7059754635222486e+00  9.7217666965624030e+00  9.7447868932382917e+00  9.7769040806346030e+00  9.7852989098330401e+00  9.8017148931392004e+00  9.7766030804997168e+00  9.7857132722583930e+00  9.8020299647990949e+00  9.8110386454011334e+00  9.7940635575070232e+00  9.7762797924040150e+00  9.8175345098779569e+00  9.8431752886806390e+00  9.8584466277483731e+00  9.8166677795267425e+00  9.8422803336442382e+00  9.8323908774731326e+00  9.8070154400527993e+00  9.7062561930050659e+00  9.7288674121477374e+00  9.8181716090607978e+00  9.8099770948630027e+00  9.8195759376938394e+00  9.8443162697956694e+00  9.8346082315539984e+00  9.8428389603570494e+00  9.7596746949425164e+00  9.7592300698901333e+00  9.7359750541465289e+00  9.7523695818775664e+00  9.7520051151968197e+00  9.7355371292094546e+00  9.7587684514952038e+00  9.7357663475971901e+00  9.7622610657292945e+00  9.7585909813317890e+00  9.7634634171252053e+00  9.7439533786306729e+00  9.7395336683105445e+00  9.7574656845659025e+00  9.6586152287202474e+00  9.6535879854225897e+00  9.6633688927687356e+00  9.6688397542387214e+00  9.6678745927410095e+00  9.6462602559880697e+00  9.6472175863485994e+00  9.6643805578591380e+00  9.6481679832425762e+00  9.6724450669860520e+00  9.6517358847788497e+00  9.6508338383009633e+00  9.6549800882284380e+00  9.7657705616305517e+00  9.7837016958671050e+00  9.7663167666093464e+00  9.7841720497959397e+00  9.8092869734996526e+00  9.7908928603088192e+00  9.6314628550103336e+00  9.6267414218113601e+00  9.6326364864151088e+00  9.6476082069817704e+00  9.8262303974787972e+00  9.8458720240374333e+00  9.8279188087364737e+00  9.8513384009921268e+00  9.8699116846505905e+00  9.8442180100750445e+00  9.8010773711206909e+00  9.7761074011807825e+00  9.7933223758707726e+00  9.8019361189799064e+00  9.7769314233336111e+00  9.7925608299800135e+00  9.8705155729361547e+00  9.8539454055613867e+00  9.8726863939517138e+00  9.9003637614551963e+00  9.8786945559773720e+00  9.8981163844465279e+00  9.8810116072633303e+00  9.8615256803186409e+00  9.8958480186935525e+00  9.7399861880519545e+00  9.7589929073345960e+00  9.6985711173908573e+00  9.7211258719067892e+00  9.6986799797280234e+00  9.7165761182583470e+00  9.7210328438513844e+00  9.7167235763568982e+00  9.6987816234387587e+00  9.6902539665735805e+00  9.6857841500685513e+00  9.7076206492549186e+00  9.6905674673231186e+00  9.8578010761648382e+00  9.7691146522737338e+00  9.7846507035855961e+00  9.7606199553284938e+00  9.7683821239228834e+00  9.8093026670079837e+00  9.8007552691383619e+00  9.7525504904162457e+00  9.7482657352662407e+00  9.7304306075534530e+00  9.7483897397916710e+00  9.7539564402085013e+00  9.8057893309921731e+00  9.8076608999548949e+00  9.8243739448489560e+00  9.7423151970053397e+00  9.7285532291627881e+00  9.7288414132887127e+00  9.7369628097907057e+00  9.7134937281155356e+00  9.8147863433932283e+00  9.8331782303012556e+00  9.8080948196749258e+00  9.8160983365487553e+00  9.8399345822685351e+00  9.8068846572754964e+00  9.8319188870269727e+00  9.8575975912207419e+00  9.7666974833440179e+00  9.7862091997129621e+00  9.7673566259276221e+00  9.7433307693488089e+00  9.7616656192399969e+00  9.7427006313235314e+00  9.7874653739789501e+00  9.7716210556092395e+00  9.7896342669099408e+00  9.8133045216766916e+00  9.7888601647208873e+00  9.8747655683909024e+00  9.8723437715065128e+00  9.8663951711175475e+00  9.8929340807693720e+00  9.9111331374161775e+00  9.8905368889832399e+00  9.8840020070912349e+00  9.8640847101579805e+00  9.8080056826190631e+00  9.7919871364870588e+00  9.8075221254581795e+00  9.8181388507954885e+00  9.7925711336042252e+00  9.7676653009274830e+00  9.7674499931696666e+00  9.7917617561032415e+00  9.7822996903990962e+00  9.7582128147883846e+00  9.7527131538974370e+00  9.7434046145901885e+00  9.7524205445316543e+00  9.7437717714510086e+00  9.7524027694393141e+00  9.7898694831792934e+00  9.8086624956733601e+00  9.8120728195907763e+00  9.7884771618492596e+00  9.9235505677668563e+00  9.9015270296126161e+00  9.8963749864807777e+00  9.8777775808626291e+00  9.8751160613445936e+00  9.8260595641367861e+00  9.8505112515814357e+00  9.8249214848997752e+00  9.7999819773058583e+00  9.8173781298377207e+00  9.7757218394293783e+00  9.7825380472279644e+00  9.8894324124467019e+00  9.8873131126659786e+00  9.8606189231548420e+00  9.8689849815400823e+00  9.7127725908626665e+00  9.7169984423720894e+00  9.6947477825234891e+00  9.7124152539893434e+00  9.7124585607653788e+00  9.6944927758248092e+00  9.6949085932505543e+00  9.6727113776961904e+00  9.6691614669956536e+00  9.7606287804914000e+00  9.7610252610569361e+00  9.6904277108606944e+00  9.6841560554743342e+00  9.6906321113301388e+00  9.7417976989314532e+00  9.7417466173234146e+00  9.8595698298392005e+00  9.8482029401392293e+00  9.8684854701813443e+00  9.8419453016747536e+00  9.8851172707371013e+00  9.8586656167237479e+00  9.6102871885061525e+00  9.6265783800243270e+00  9.6057848606571827e+00  9.6088556072237381e+00  9.6296399354220448e+00  9.6250837853188411e+00  9.6130228712008670e+00  9.6072553666251803e+00  9.6749349257409563e+00  9.6591650524316766e+00  9.8701335675027781e+00  9.8543371575576799e+00  9.8815861205833233e+00  9.8799079510756371e+00  9.8685735274075466e+00  9.5858597853295713e+00  9.6024821969122840e+00  9.8523540700946874e+00  9.8350621614117220e+00  9.8275920233131000e+00  9.8767842140846991e+00  9.7371528597559891e+00  9.8045626977320417e+00  9.7389710554303583e+00  9.7205293056106417e+00  9.6423678801152999e+00  9.6412928863146448e+00  9.6628748405741529e+00  9.8860487018944987e+00  9.6832825525007618e+00  9.6896097198669668e+00  9.6433698579912512e+00  9.7827910879144806e+00  9.8537874504848162e+00  9.8803245179057217e+00  9.6765642157004610e+00  9.6254557605926472e+00  9.6191940547671049e+00  9.6205273070947825e+00  9.6062515223370752e+00  9.6001483947542727e+00  9.6140170670091294e+00  9.8329153232867554e+00  9.8912614753450203e+00  9.8637812063236332e+00  9.6227397414631426e+00  9.7848878460423503e+00  9.8989007095472470e+00  9.9177240374805766e+00  9.5725799153118754e+00  9.5898630684630497e+00  9.5884488207005969e+00  9.6468242774820059e+00  9.6616457687715211e+00  9.6557499291524369e+00  9.6625051357781615e+00  9.6413078572829640e+00  9.8383949489527502e+00  9.5957707847264171e+00  9.5994070944374226e+00  9.6148450273283874e+00  9.7653579333867899e+00  9.6275215774410778e+00  9.6305368313341155e+00  9.6338066732052585e+00  9.6772704985173341e+00  9.6120977501619436e+00  9.8628016891007295e+00  9.8494091862646265e+00  9.5983860836182160e+00  9.5783914944525552e+00  9.5738231804382288e+00  9.5937261133830489e+00  9.5801149707170712e+00  9.5926221497771671e+00  9.8120026737028194e+00  9.7650323741011498e+00  9.6399475850212184e+00  9.6455063143114330e+00  9.6302218465967453e+00  9.7692051271949509e+00  9.7972773200940448e+00  9.7863395580371666e+00  9.7724164468041366e+00  9.7968830973856775e+00  9.6104283476567094e+00  9.5919121251420592e+00  9.9038220479364725e+00  9.6346627673140119e+00  9.7055365840823349e+00  9.6767730609873777e+00  9.6828480217483950e+00  9.5539710742542887e+00  9.5758661686223014e+00  9.5610050737627112e+00  9.5559196911563564e+00  9.5790582935323929e+00  9.5738832722988896e+00  9.5590873584617881e+00  9.5639051756267950e+00  9.5578677238833443e+00  9.5413501749390353e+00  9.5394631434296215e+00  9.5700407081812937e+00  9.5684130622301140e+00  9.5720503340385612e+00  9.5505615377340956e+00  9.5366757081587075e+00  9.5196204199473708e+00  9.5525342458842353e+00  9.5385896648050164e+00  9.5333146808006006e+00  9.5469408688195720e+00  9.5647184322399070e+00  9.5663760260113886e+00  9.5151790904711113e+00  9.5344094750485393e+00  9.5045837509223521e+00  9.5258115993671506e+00  9.5291010235231468e+00  9.5235845681319571e+00  9.5099671747998507e+00  9.5429434426826365e+00  9.5449388416100955e+00  9.5390741920116273e+00  9.5349687715343876e+00  9.5410741377950288e+00  9.5277516436174388e+00  9.5774445130430941e+00  9.5629397707531663e+00  9.5806006608879564e+00  9.5310336820300421e+00  9.5485806869651757e+00  9.5583766268984025e+00  9.5626703967792412e+00  9.5604403474554367e+00  9.5839247148356499e+00  9.5684107020013265e+00  9.5542443107035506e+00  9.7692348466155359e+00  9.7706376267657191e+00  9.7501719805074458e+00  9.7466642726190269e+00  9.6619273075281473e+00  9.6443628621664708e+00  9.6625875143297648e+00  9.6421692734318736e+00  9.6437430632027574e+00  9.6256619220573025e+00  9.6227508277840244e+00  9.6428270636717581e+00  9.6632442614119913e+00  9.7968763585933409e+00  9.7970258720519006e+00  9.7952889951255884e+00  9.8186113882923181e+00  9.7986655681709074e+00  9.7997542451532276e+00  9.8200929345552819e+00  9.8406739150645066e+00  9.8169653555733500e+00  9.7937004410401727e+00  9.7980454187945760e+00  9.8183603582927343e+00  9.7953438502779235e+00  9.7963381955362401e+00  9.7737290351650223e+00  9.7766719049384978e+00  9.7753106802237006e+00  9.7539802691917732e+00  9.7750134646262854e+00  9.6201736234009658e+00  9.6382878069933433e+00  9.6408662788135988e+00  9.6594212608164653e+00  9.6396226467239252e+00  9.6565504454572366e+00  9.6669897822637108e+00  9.6675683452262664e+00  9.6653194849877426e+00  9.6859765374632243e+00  9.7051557176273473e+00  9.6659251689157752e+00  9.6865824165151349e+00  9.6840175629148320e+00  9.6681443627405521e+00  9.6840385237486011e+00  9.6647020621547863e+00  9.6833794000509528e+00  9.7052259379522798e+00  9.6860391722337731e+00  9.7097471760591620e+00  9.6896650599137555e+00  9.7096095356861341e+00  9.6887675379811764e+00  9.6898185610642589e+00  9.6700867266701884e+00  9.6693383257239756e+00  9.6886431894844982e+00  9.7094699745417419e+00  9.6706166916470853e+00  9.6698816300530925e+00  9.6902121485978387e+00  9.6711455713208867e+00  9.7110123872499994e+00  9.7315224041616393e+00  9.7111822322370873e+00  9.7316763450363801e+00  9.7328909155818604e+00  9.7120521131678554e+00  9.7530917948640958e+00  9.7515218814809526e+00  9.7728385296382019e+00  9.7709169097317510e+00  9.7485497311024396e+00  9.7506618934290579e+00  9.7522037419856584e+00  9.6909143050252418e+00  9.6914471972325718e+00  9.7320058995743608e+00  9.7306644227836934e+00  9.6557678509227785e+00  9.6525655031730313e+00  9.6735447616608532e+00  9.6351959204427597e+00  9.6375505524843259e+00  9.6181355925876737e+00  9.6157666602785170e+00  9.6359764835089194e+00  9.6319615533275780e+00  9.7290443836505656e+00  9.7493621800989150e+00  9.7523849154596007e+00  9.7298695209194150e+00  9.7076788309631006e+00  9.6881898447866917e+00  9.7051929349375943e+00  9.7077602043295741e+00  9.7274367927758121e+00  9.7266595917359435e+00  9.7274874103026612e+00  9.6143963351324242e+00  9.5945111721502077e+00  9.6116951020913657e+00  9.5798787834108197e+00  9.5977532219977544e+00  9.5964340224036224e+00  9.6312330627446805e+00  9.6517817018232748e+00  9.6708655955273226e+00  9.6505563296728134e+00  9.6194562750890036e+00  9.7740928691489923e+00  9.6493159528230805e+00  9.6687916430934209e+00  9.6507763933020527e+00  9.6498642797057510e+00  9.6317364113961812e+00  9.7929405824602878e+00  9.7717677857696241e+00  9.7732984610850515e+00  9.7914033948278103e+00  9.8208044453713139e+00  9.8190465573440715e+00  9.8417674587289294e+00  9.8421248315125727e+00  9.7118652639041532e+00  9.7325935509805639e+00  9.7323977263763535e+00  9.7318210462499692e+00  9.7530983598889271e+00  9.7534073258413265e+00  9.7116786208548636e+00  9.7075703446092518e+00  9.6317010499024995e+00  9.6305312068645623e+00  9.6293653441137543e+00  9.6495758315225597e+00  9.6773542585257903e+00  9.6774707262781376e+00  9.6481001246566400e+00  9.6329061602295596e+00  9.6146372352795062e+00  9.6713809517075795e+00  9.6522938156163196e+00  9.6336398039822200e+00  9.6920077825052040e+00  9.5764129146233063e+00  9.7459034872526455e+00  9.7684378067433357e+00  9.7108371509155873e+00  9.6461572701532248e+00  9.7022051179624036e+00  9.7021584270256689e+00  9.7245345780105872e+00  9.7238786717197687e+00  9.7238715929567814e+00  9.7022139067610027e+00  9.6802744127377487e+00  9.6802105343011196e+00  9.7289208659365709e+00  9.6231355566094692e+00  9.5998551262432184e+00  9.6168029920664502e+00  9.6256178913796671e+00  9.6280704723736967e+00  9.6456049624513778e+00  9.7473567153123728e+00  9.7549504512277814e+00  9.7756800312397942e+00  9.7773633946963319e+00  9.7552866356234258e+00  9.7944023631470696e+00  9.8387758019925879e+00  9.8608888127559258e+00  9.8411038371605688e+00  9.6513018833453987e+00  9.7983903411434010e+00  9.8001241129831556e+00  9.8164245010748434e+00  9.8148319630582126e+00  9.8454251930772809e+00  9.8209120403045542e+00  9.6473742632841422e+00  9.6301182082322665e+00  9.6479514871266918e+00  9.7540325310150013e+00  9.7747233459570051e+00  9.6586834264982855e+00  9.6809717337464800e+00  9.8186580979035725e+00  9.6601181653243504e+00  9.6912698316330150e+00  9.8434218683865797e+00  9.8224377909433542e+00  9.5571011527002536e+00  9.5643401880570096e+00  9.5712551300737747e+00  9.5519226971811921e+00  9.5697940306199687e+00  9.5822108343559904e+00  9.5837722937878613e+00  9.5461993049386660e+00  9.5657132961191866e+00  9.5853711947906053e+00  9.6536972535447934e+00  9.6547294245749047e+00  9.6475728282258064e+00  9.6689425526444843e+00  9.6841753871604990e+00  9.6486530013825647e+00  9.6700491560061543e+00  9.6624678952040615e+00  9.6412551842856615e+00  9.5828406720833161e+00  9.5838267686033074e+00  9.5978581261684806e+00  9.5779651315646994e+00  9.5729045830729476e+00  9.5989014894388358e+00  9.5789827310331841e+00  9.5926970790879231e+00  9.6128717580302894e+00  9.5848065239818432e+00  9.5822458763915197e+00  9.5835814706062781e+00  9.5642241648795174e+00  9.5761046585034233e+00  9.5695283988466695e+00  9.5773624670766395e+00  9.5578672948468153e+00  9.5459243698294713e+00  9.5653709887540330e+00  9.5849506817030203e+00  9.5311560082844196e+00  9.5455693957502223e+00  9.5505604653074396e+00  9.5442428518338094e+00  9.5571380931423420e+00  9.5652799189178470e+00  9.5585419412986496e+00  9.5638153100147107e+00  9.5703627009998939e+00  9.5599886589812915e+00  9.5545335279153765e+00  9.5611406301911277e+00  9.5433716348084321e+00  9.5542038997690035e+00  9.5605917895103349e+00  9.5442649198397991e+00  9.5333064026606831e+00  9.5495946015179207e+00  9.5674471226195124e+00  9.5512687122992492e+00  9.6538214162867710e+00  9.6331425017625403e+00  9.6391156728976011e+00  9.6322802192526886e+00  9.6112045968929447e+00  9.6186700112401553e+00  9.6120428337527777e+00  9.6178846051435176e+00  9.6242706889915723e+00  9.5440022608942918e+00  9.5448662946887168e+00  9.5566552591064475e+00  9.5627776860902429e+00  9.6228312055448288e+00  9.6323085995349107e+00  9.6113704208194672e+00  9.6242438407200552e+00  9.6309338721581970e+00  9.6100575914472550e+00  9.5970216453534611e+00  9.6176724986183011e+00  9.6387993935182887e+00  9.6256531104390639e+00  9.5970819433463426e+00  9.5982416729156395e+00  9.6111344154955916e+00  9.5911088936094941e+00  9.6123748447301161e+00  9.5922804394131891e+00  9.6048236843159174e+00  9.6251138421508902e+00  9.5993979607403244e+00  9.6757173088479220e+00  9.6913208268649988e+00  9.6656790780370425e+00  9.6451849802367118e+00  9.6663913422258911e+00  9.6578054385073528e+00  9.6497590074696991e+00  9.6375873211444780e+00  9.6585667030933937e+00  9.6670885070963077e+00  9.6458502652155644e+00  9.8140748589286222e+00  9.8000872611272012e+00  9.7887395282854239e+00  9.8137459777375060e+00  9.8004322736084148e+00  9.7865535250979665e+00  9.7754252635552472e+00  9.8132207982742568e+00  9.7882137125243656e+00  9.7638665736654620e+00  9.5703067718552255e+00  9.5923150572377605e+00  9.5852404690151438e+00  9.5720627885229188e+00  9.5905018513897708e+00  9.6111129459084257e+00  9.6057184332410372e+00  9.5870720803445284e+00  9.6001474266414650e+00  9.5693985066855962e+00  9.5642090037033558e+00  9.5684743399631795e+00  9.5540190442746358e+00  9.5500427069686733e+00  9.5458638890730736e+00  9.5651662607279668e+00  9.6656023907216859e+00  9.6532785688181004e+00  9.6454222380975860e+00  9.6666601840334483e+00  9.6523231941928671e+00  9.6677043942764520e+00  9.6464264167356522e+00  9.7622716076635516e+00  9.7864525446775126e+00  9.7514566521493347e+00  9.7753520106851663e+00  9.7621615333778795e+00  9.7386054837580325e+00  9.5985840728847425e+00  9.5912902027638136e+00  9.5928636994397678e+00  9.6053006005498016e+00  9.6130191549887449e+00  9.5784301866310351e+00  9.5838208018693933e+00  9.5768855061048601e+00  9.5439819691686925e+00  9.5567266745604069e+00  9.5449885044847118e+00  9.5627515488096826e+00  9.5761717786750005e+00  9.5580750403236117e+00  9.5696854431837277e+00  9.7106253097591377e+00  9.7112460057093450e+00  9.7019546722945051e+00  9.7246603486656547e+00  9.7026369712772222e+00  9.7253634037071546e+00  9.7155526435387376e+00  9.6930939934650393e+00  9.7118484172717423e+00  9.6825795903083343e+00  9.7061100023827915e+00  9.6833854651835178e+00  9.6905927072375384e+00  9.7052822781489194e+00  9.7063734316601913e+00  9.5545358139800136e+00  9.5719151715966557e+00  9.5719474402853937e+00  9.5541618561555666e+00  9.5718948226494387e+00  9.5709691744226078e+00  9.5891453399646558e+00  9