<?xml version="1.0"?>
<VTKFile type="UnstructuredGrid"  version="0.1"  >
<UnstructuredGrid>
<Piece  NumberOfPoints="5911" NumberOfCells="27301">
<Points>
<DataArray  type="Float64"  NumberOfComponents="3"  format="ascii">-44.707341 -27.664765 -10.627894  -43.4075455 -26.998254 -10.59420075  -43.939212 -26.4658265 -10.5949615  -43.938485 -26.9984425 -10.0630725  -43.169629 -26.33212 -9.498251  -42.6386895 -26.3319315 -10.02937925  -43.170356 -25.799504 -10.03014  -43.171083 -25.266888 -10.562029  -42.6394165 -25.7993155 -10.56126825  -42.10775 -26.331743 -10.5605075  -44.1764015 -27.6645765 -11.15902225  -43.64546199999999 -27.664388 -11.6901505  -42.876606 -26.9980655 -11.125329  -43.4082725 -26.465638 -11.12608975  -44.708068 -27.132149 -11.159783  -44.70879499999999 -26.599533 -11.691672  -43.939939 -25.9332105 -11.1268505  -44.17712849999999 -27.1319605 -11.69091125  -44.710249 -25.534301 -12.75545  -43.94066599999999 -25.4005945 -11.6587395  -44.1785825 -26.0667285 -12.75468925  -44.70952199999999 -26.066917 -12.223561  -43.40899949999999 -25.933022 -11.65797875  -44.17785549999999 -26.5993445 -12.22280025  -43.646916 -26.599156 -12.7539285  -42.583583 -27.664011 -12.752407  -42.34566649999999 -26.997877 -11.65645725  -42.87733299999999 -26.4654495 -11.657218  -43.11452249999999 -27.6641995 -12.22127875  -43.1152495 -27.1315835 -12.75316775  -43.64618899999999 -27.131772 -12.2220395  -41.631917 -24.999475 -8.368608  -41.8698335 -25.665609 -9.464557750000001  -42.4015 -25.1331815 -9.465318499999999  -42.400773 -25.6657975 -8.933429499999999  -48.948592 -31.923619 2.127788  -48.17007775 -30.7021315 2.12779  -48.41646625 -31.39196125 3.1915715  -48.948573 -31.391689 2.659737  -48.948554 -30.859759 3.191686  -46.3289 -31.6086125 -1.0624875  -46.576702 -32.29821925 -2.12507875  -47.10805775 -32.29808975 -1.5938525  -46.5760445 -32.83022425 -1.59373125  -47.8872155 -32.987567 -2.1252175  -47.35585975 -32.9876965 -2.65644375  -47.35520225 -33.5197015 -2.12509625  -46.824504 -32.987826 -3.18767  -46.8238465 -33.519831 -2.6563225  -48.951242 -31.923298 -2.12546  -47.6407285 -31.23395025 -2.12532125  -48.17208425 -31.23382075 -1.594095  -47.64007100000001 -31.76595525 -1.59397375  -46.32955750000001 -31.0766075 -1.593835  -46.86091325 -31.076478 -1.06260875  -47.3929265 -30.5443435 -1.06273  -46.86157075 -30.544473 -1.59395625  -46.330215 -30.5446025 -2.1251825  -48.41988625 -31.9234275 -2.65668625  -47.10871525 -31.76608475 -2.1252  -47.10937275000001 -31.23407975 -2.6565475  -47.8885305 -31.923557 -3.1879125  -48.41922875 -32.4554325 -2.12533875  -47.887873 -32.455562 -2.656565  -46.825819 -31.923816 -4.250365  -47.35717475 -31.9236865 -3.71913875  -46.578017 -31.23420925 -3.18777375  -46.5773595 -31.76621425 -2.65642625  -47.35651725 -32.4556915 -3.18779125  -46.82516150000001 -32.455821 -3.719017500000001  -45.834611 -29.165389 0  -46.082413 -29.85499575 -1.06259125  -46.61376875000001 -29.85486625 -0.531365  -46.0817555 -30.38700075 -0.53124375  -48.95359 -29.794882 -4.251528  -48.174214 -29.11642 -3.709366  -48.69601425 -29.11533975 -3.188646  -48.17384525 -29.63750875 -3.188646  -47.3941005 -29.4801355 -2.125764  -47.39446925 -28.95904675 -2.646484  -47.9162695 -28.9579665 -2.125764  -48.4384385 -28.4357975 -2.125764  -47.91663825000001 -28.43687775 -2.646484  -47.394838 -28.437958 -3.167204  -45.83497975 -28.64430025 -0.52072  -46.35678 -28.64322 0  -46.61435575 -29.32276225 -1.062882  -46.6147245 -28.8016735 -1.583602  -47.13652475000001 -28.80059325 -1.062882  -46.87894900000001 -28.121051 0  -46.35714875000001 -28.12213125 -0.52072  -45.8353485 -28.1232115 -1.04144  -47.923287 -27.076713 0  -47.40148675 -27.07779325 -0.52072  -47.401118 -27.598882 0  -47.65869375 -28.27842425 -1.062882  -47.1368935 -28.2795045 -1.583602  -46.87931775000001 -27.59996225 -0.52072  -46.87968650000001 -27.0788735 -1.04144  -48.18086275 -27.75625525 -1.062882  -47.6590625 -27.7573355 -1.583602  -45.836086 -27.081034 -2.08288  -46.35788625000001 -27.07995375 -1.56216  -46.3575175 -27.6010425 -1.04144  -46.61509325 -28.28058475 -2.104322  -47.13726225000001 -27.75841575 -2.104322  -45.83571725 -27.60212275 -1.56216  -46.615462 -27.759496 -2.625042  -48.955862 -27.666013 -6.378125  -48.69795525000001 -26.4771885 -5.824856499999999  -48.698285 -26.998084 -5.303630999999999  -49.22991625 -26.46597725 -5.3041065  -49.50397049999999 -25.2659415 -4.230088  -48.9720095 -25.27715275 -4.750838  -48.97233925 -25.79804825 -4.2296125  -48.440708 -26.330155 -4.229137  -48.44037825 -25.8092595 -4.7503625  -48.4400485 -25.288364 -5.271587999999999  -47.925554 -24.994297 -2.080149  -48.18280125 -25.1413305 -3.6758685  -48.183131 -25.662226 -3.154643  -48.71476224999999 -25.13011925 -3.1551185  -51.079095 -29.794869 -2.126036  -50.2905865 -28.583209 -2.12620425  -50.290143 -29.11533 -1.594527  -49.75876675000001 -29.11533325 -2.1259  -48.97025825 -27.90367325 -2.12606825  -48.96981475 -28.43579425 -1.594391  -49.50119100000001 -28.435791 -1.063018  -49.5016345 -27.90367 -1.59469525  -49.502078 -27.371549 -2.1263725  -51.0795385 -29.262748 -2.65771325  -50.54816225 -29.26275125 -3.18908625  -50.0172295 -28.7306335 -4.252136500000001  -50.54860575 -28.73063025 -3.7207635  -49.75965375 -28.05109125 -3.189254500000001  -50.29103 -28.051088 -2.6578815  -51.079982 -28.730627 -3.1893905  -50.54771875 -29.79487225 -2.657409  -49.75921025 -28.58321225 -2.65757725  -49.2273905 -29.1153365 -2.657273  -50.0163425 -29.7948755 -3.188782  -50.016786 -29.2627545 -3.72045925  -49.227834 -28.5832155 -3.18895025  -49.48496625 -29.79487875 -3.720155  -49.48540975 -29.26275775 -4.251832250000001  -51.080869 -27.666385 -4.252745  -51.0804255 -28.198506 -3.72106775  -50.2914735 -27.518967 -3.18955875  -50.54904925 -28.19850925 -4.25244075  -48.7126825 -27.224131 -1.06318625  -48.712239 -27.756252 -0.531509  -42.586667 -25.532975 -14.880358  -41.82276425 -25.39975575 -13.77748  -42.34449725 -24.88085725 -13.7746455  -42.34372625 -25.41361625 -13.24265775  -42.1007855 -25.2942575 -11.6049575  -41.5798235 -25.280397 -12.13977975  -42.1015565 -24.7614985 -12.13694525  -42.1023275 -24.2287395 -12.668933  -41.5805945 -24.747638 -12.6717675  -41.0588615 -25.2665365 -12.674602  -42.585896 -26.065734 -14.34837025  -42.585125 -26.598493 -13.8163825  -41.82199325 -25.93251475 -13.24549225  -42.34295525 -25.94637525 -12.71067  -41.82122225 -26.46527375 -12.7135045  -42.34218425 -26.47913425 -12.17868225  -41.0573195 -26.3320545 -11.6106265  -39.531056 -25.000098 -10.468846  -40.29495875 -25.13331725 -11.571724  -40.81592075 -25.14717775 -11.03690175  -42.584354 -27.131252 -13.28439475  -41.617988 -22.924504 -10.457508  -41.33842475 -24.09552025 -11.566055  -41.85938675 -24.10938075 -11.03123275  -40.574522 -23.962301 -10.463177  -41.86015775 -23.57662175 -11.5632205  -46.05689875 -31.2336815 -3.70941975  -46.05923425 -31.752992 -3.18777375  -45.80909675 -30.54407475 -2.6468285  -45.81143225 -31.06338525 -2.1251825  -45.2926495 -31.582168 -2.1251825  -45.290314 -31.0628575 -2.6468285  -45.2879785 -30.543547 -3.1684745  -44.7923745 -29.1643335 -1.043292  -44.27359175 -29.68311625 -1.043292  -45.042512 -30.37325075 -1.58423725  -44.27592725 -30.20242675 -0.5216460000000001  -44.52372925 -30.8920335 -1.58423725  -44.52606475 -31.411344 -1.06259125  -43.754809 -30.201899 -1.043292  -45.56363025 -30.3737785 -1.06259125  -45.31349275 -29.16486125 -0.5216460000000001  -45.56129475 -29.854468 -1.58423725  -43.750138 -29.163278 -2.086584  -43.7524735 -29.6825885 -1.564938  -44.52139375 -30.372723 -2.10588325  -44.27125625 -29.16380575 -1.564938  -45.0401765 -29.85394025 -2.10588325  -44.51905825 -29.8534125 -2.62752925  -40.447373 -34.054804 -8.497823  -40.224992 -32.83013725 -7.9448705  -38.960555 -32.643369 -7.3960755  -40.0087605 -32.647081 -6.344158500000001  -39.570148 -31.239358 -4.190494  -39.7863795 -31.42241425 -5.791206000000001  -38.5219425 -31.235646 -5.242411000000001  -37.473737 -31.231934 -6.294328  -38.738174 -31.41870225 -6.843123  -40.002611 -31.6054705 -7.391918  -39.5639985 -30.1977475 -5.2382535  -38.515793 -30.1940355 -6.2901705  -39.557849 -29.156137 -6.286013  -39.78023 -30.38080375 -6.8389655  -42.575943 -31.924835 -8.499222  -41.82449425 -31.75346575 -7.42204  -41.289277 -31.76515275 -7.94557  -41.066896 -30.540486 -7.3926175  -40.31544725000001 -30.36911675 -6.3154355  -40.53782825 -31.5937835 -6.868388  -41.07304550000001 -31.5820965 -6.344858  -42.0438005 -32.45732725 -8.49887225  -41.29235175 -32.28595799999999 -7.42169025  -40.7571345 -32.297645 -7.94522025  -41.511658 -32.9898195 -8.4985225  -40.76020925 -32.81845025 -7.4213405  -40.32159675 -31.41072725 -5.267676  -40.9795155 -33.52231175 -8.49817275  -42.34557700000001 -31.2336125 -7.4208105  -40.83653 -29.8492635 -6.314206  -41.59412825 -31.06224325 -6.3436285  -42.115211 -30.54239 -6.342399  -40.83960475000001 -30.37006875 -5.79032625  -41.36376225000001 -30.37102075 -5.265217  -40.088156 -30.1986995 -4.71314425  -40.6123135 -30.1996515 -4.188035  -41.654479 -29.159945 -4.185576  -41.1303215 -29.158993 -4.71068525  -40.606164 -29.158041 -5.2357945  -40.0820065 -29.157089 -5.76090375  -41.884845 -29.8511675 -5.263987500000001  -41.3606875 -29.8502155 -5.789096750000001  -42.342748 -30.71322525 -7.94402675  -40.833701 -29.32887625 -6.837422249999999  -42.112382 -30.02200275 -6.86561525  -42.10955300000001 -29.5016155 -7.3888315  -41.65165 -28.63955775 -4.70879225  -41.88201600000001 -29.33078025 -5.78720375  -41.1274925 -28.63860575 -5.2339015  -41.35785850000001 -29.32982825 -6.312313  -41.879187 -28.810393 -6.310420000000001  -41.648821 -28.1191705 -5.2320085  -40.600506 -28.1172665 -6.282227  -41.643163 -27.078396 -6.278441  -41.876358 -28.29000575 -6.83363625  -41.1246635 -28.1182185 -5.75711775  -41.645992 -27.59878325 -5.75522475  -50.81065175000001 -26.99978875 -3.18955875  -50.29204025 -26.998363 -3.709596  -50.02125625 -26.85237075 -2.1263725  -49.50264475 -26.850945 -2.64640975  -49.5032115 -26.
[...]
<PointData  Vectors="u"> 
<DataArray  type="Float64"  Name="u"  NumberOfComponents="3" format="ascii">8.4522165855304749e+01 -6.5003632804682709e+01 -1.9511963876337376e+01  8.3971419679025161e+01 -6.3231649171577700e+01 -2.0774959195503133e+01  8.5494733792661563e+01 -6.4256357449251539e+01 -2.1291778614718950e+01  8.4432123413407183e+01 -6.4744222225870203e+01 -1.9743993915966485e+01  8.4363841851954973e+01 -6.4470716306159289e+01 -1.9963805346217246e+01  8.3891529522646806e+01 -6.2954722916368411e+01 -2.0984465848704129e+01  8.5412970127519984e+01 -6.3970640926365192e+01 -2.1514559381741574e+01  8.6444669237782989e+01 -6.3413513218235394e+01 -2.3108120006249401e+01  8.4874866997559437e+01 -6.2413229587652602e+01 -2.2511573739427138e+01  8.3372324349238255e+01 -6.1455489707737001e+01 -2.1944391836360605e+01  8.4075394191539786e+01 -6.3501996799478576e+01 -2.0575756366199979e+01  8.3570573067324545e+01 -6.2005876397246382e+01 -2.1562439748275786e+01  8.3460884671744751e+01 -6.1738797972059935e+01 -2.1748118748051489e+01  8.4963243606329215e+01 -6.2691806421644436e+01 -2.2310074675683115e+01  8.5603072426993663e+01 -6.4537057310593994e+01 -2.1068823320457060e+01  8.6660356994535704e+01 -6.3969201506030089e+01 -2.2681993538864489e+01  8.6536753449902420e+01 -6.3699792620699895e+01 -2.2898964970080922e+01  8.5083821905764239e+01 -6.2971769329203916e+01 -2.2114378898651214e+01  8.8671895638275203e+01 -6.2634889050205196e+01 -2.6030145837655223e+01  8.7548306210922149e+01 -6.3061413428561195e+01 -2.4544396142361755e+01  8.7010095065188736e+01 -6.1702873144999216e+01 -2.5311046377820844e+01  8.7683588129055394e+01 -6.3356155554524378e+01 -2.4331870080397636e+01  8.5940383843134143e+01 -6.2091857453527105e+01 -2.3888775566062098e+01  8.6057926322563631e+01 -6.2374871257498377e+01 -2.3690252680724598e+01  8.5412566847966218e+01 -6.0796211556882000e+01 -2.4614242896946415e+01  8.2447619148487121e+01 -5.9081888819382257e+01 -2.3366775162743796e+01  8.2911409245045689e+01 -6.0269639268612124e+01 -2.2655621297158103e+01  8.4386637094280076e+01 -6.1155552233353013e+01 -2.3254064061010446e+01  8.3018380423318618e+01 -6.0546308320660224e+01 -2.2471099550413669e+01  8.3889209062288799e+01 -5.9930168893506938e+01 -2.3958181783550163e+01  8.4504002847416430e+01 -6.1439852263150733e+01 -2.3066277734578311e+01  8.4230684973941621e+01 -6.3875400394523950e+01 -2.0354136445935300e+01  8.3816399969956905e+01 -6.2668547183884797e+01 -2.1178354196027346e+01  8.5333973138839923e+01 -6.3682951048195640e+01 -2.1700377948034642e+01  8.4302618835983480e+01 -6.4182694840673648e+01 -2.0163451424972738e+01  7.4991736910725706e+01 -7.3491529023882052e+01 1.5652488961504516e+00  7.5973316918781222e+01 -7.3824632719969884e+01 2.1234112986400322e+00  7.6123792662710784e+01 -7.3283434530139985e+01 2.8438805507405021e+00  7.5809252655919536e+01 -7.3809841387233789e+01 2.0009143864849328e+00  7.6665984193169834e+01 -7.4153707444610959e+01 2.5177612887241967e+00  7.4191446451575175e+01 -7.1474281456794770e+01 -1.4776612949439569e+00  7.3998259692929253e+01 -7.0915679034367955e+01 -2.5784616542704799e+00  7.3982056321141499e+01 -7.1600830434974313e+01 -1.7205947605430023e+00  7.3223782455840691e+01 -7.0661649201321055e+01 -1.8164753078240836e+00  7.3748636986825630e+01 -7.1841644430584253e+01 -1.8719895405134008e+00  7.3774860727077979e+01 -7.1152117570794289e+01 -2.6194262753298738e+00  7.2961162082941129e+01 -7.0994914096591515e+01 -1.9847717650910233e+00  7.3814265786734211e+01 -7.0401777012515083e+01 -3.4169122792280970e+00  7.2964710056450770e+01 -7.0251096432870668e+01 -2.7158320511657248e+00  7.5015930058981127e+01 -7.3477349819749591e+01 -1.5212576423728121e+00  7.5440583836283650e+01 -7.2840869335578716e+01 -2.3497435180492521e+00  7.5243240032319349e+01 -7.3448320525030482e+01 -1.4798892161347645e+00  7.4660402381232728e+01 -7.2517276149865637e+01 -1.6303883732706759e+00  7.4941058188617887e+01 -7.1823095473691779e+01 -2.3520099273503186e+00  7.4904265197393073e+01 -7.2485778792582025e+01 -1.3961005181222141e+00  7.5542800211640639e+01 -7.3520085770130976e+01 -1.3153369587366992e+00  7.5662864666601536e+01 -7.2858604629780274e+01 -2.2516213988632625e+00  7.5755578935696931e+01 -7.2141910039131716e+01 -3.2443433137644404e+00  7.5231711176514622e+01 -7.2947019051806180e+01 -2.2880786636009560e+00  7.4750546129367308e+01 -7.1869692681319236e+01 -2.4866170816792121e+00  7.5604480764891321e+01 -7.2176372211627026e+01 -3.2135417340418453e+00  7.5429422066203429e+01 -7.2307115121035508e+01 -3.1249533754727707e+00  7.4430348807903343e+01 -7.2718827956934675e+01 -1.7294764830158627e+00  7.4557982058951993e+01 -7.2073467731340784e+01 -2.4770168695508623e+00  7.5728456801111562e+01 -7.0699141425728953e+01 -5.0316614411469711e+00  7.5595980821935271e+01 -7.1533547280368424e+01 -4.0611933929395523e+00  7.5739011086803288e+01 -7.1395834275424917e+01 -4.2002005961699167e+00  7.4813928630872866e+01 -7.1150220143151387e+01 -3.3593739639970499e+00  7.4651810386744245e+01 -7.1373958124587020e+01 -3.2678426637004616e+00  7.4749849131108348e+01 -7.0558921136677782e+01 -4.1979355228659925e+00  7.5549320288374759e+01 -7.4157792322616459e+01 1.2045125704302131e-02  7.5797847683392575e+01 -7.3005240471699295e+01 -2.1082604849186768e+00  7.5797887742884612e+01 -7.3668581906667399e+01 -8.8875967106317688e-01  7.5076369078294064e+01 -7.2556993782106375e+01 -9.8868227029459588e-01  7.8829994953344922e+01 -7.4968500972394537e+01 -3.8338458921656655e+00  7.8933861854468233e+01 -7.5252679686008022e+01 -4.3988607425685595e+00  7.8229734846948745e+01 -7.6001748330930212e+01 -3.1977967362999258e+00  7.7815470628562139e+01 -7.4715012766435947e+01 -3.5621726185949378e+00  7.7168906774267043e+01 -7.4476731239676766e+01 -2.9525107652632387e+00  7.8160184068340442e+01 -7.4970702623352580e+01 -3.8280592349126161e+00  7.7684888131428536e+01 -7.5816577351280799e+01 -2.7394153431989978e+00  7.7965819416835643e+01 -7.7288646646042565e+01 -2.5297024619137036e+00  7.8732506863138454e+01 -7.6436936128740271e+01 -3.6362310117191132e+00  7.9321973569260720e+01 -7.5486368499100408e+01 -4.7835413498324151e+00  7.6474915938550879e+01 -7.4385906422446496e+01 -2.1836338127783850e+00  7.6337654982170875e+01 -7.5326260255337900e+01 -2.3727656957017226e-03  7.6558964382955608e+01 -7.4163654693323608e+01 -2.0657381430447588e+00  7.7530941256520407e+01 -7.4626503668923021e+01 -2.9360982941166558e+00  7.7301988338534272e+01 -7.5459646824640217e+01 -1.8768368547837000e+00  7.7429743398988620e+01 -7.6463468840258699e+01 -6.1725258390484114e-03  7.7405030061568169e+01 -7.5561175458067851e+01 -1.9245517268201595e+00  7.7686802955236161e+01 -7.4599584347212058e+01 -3.0783278141925345e+00  7.9710692068998071e+01 -7.9607879532281970e+01 -6.2180854306408120e-03  7.9590439863904308e+01 -7.8458160364014148e+01 -1.1834111761815882e+00  7.8241314805768894e+01 -7.7829573994650232e+01 -3.9950283300886494e-03  7.7881003164802308e+01 -7.6900605727544558e+01 -1.7590722906470069e+00  7.8296173156048638e+01 -7.6017216431962055e+01 -2.8536059553708286e+00  7.8455850791442415e+01 -7.6889632128829732e+01 -1.6931548891795745e+00  7.9914215744677904e+01 -7.7429930003519019e+01 -2.4478566645575461e+00  7.8496129805815471e+01 -7.8698422599481319e+01 -1.5836241709942172e+00  7.9029119006272509e+01 -7.7639241612632958e+01 -2.5809465596733334e+00  8.0336656661199072e+01 -7.5199826197273140e+01 -5.0751113102102385e+00  8.0098696865332201e+01 -7.6319219108316048e+01 -3.7859797213891748e+00  7.8660290763562571e+01 -7.5848365385170268e+01 -2.8993104603613715e+00  7.8605178634299691e+01 -7.5062026440193520e+01 -4.0047765714342400e+00  7.9539663796681040e+01 -7.6625075572543025e+01 -3.7862440231571468e+00  7.8966824023483611e+01 -7.4865470972727721e+01 -4.1075656590783698e+00  7.9871431957378320e+01 -7.5494528433905487e+01 -4.9891789610220512e+00  8.4552787617352891e+01 -7.6440897680052032e+01 -8.0209012798096833e+00  8.5187014960985977e+01 -7.8600714943395872e+01 -8.8125462254820803e+00  8.3647255824550157e+01 -7.8256974708559014e+01 -7.3901716668096782e+00  8.3937832486050496e+01 -8.0018779095596088e+01 -7.1030308749330731e+00  8.3270597983850408e+01 -8.6393990649731691e+01 -7.6463077722519843e+00  8.5643381229722635e+01 -8.4004553186745582e+01 -8.9130509458348577e+00  8.3822481650101665e+01 -8.3263672417335115e+01 -7.1375458823230566e+00  8.3460428659226665e+01 -8.0488117939492682e+01 -6.9433277059007352e+00  8.5200091433916825e+01 -8.1186917862835756e+01 -8.4441300007391504e+00  8.6926781476831067e+01 -8.1657124257001954e+01 -1.0062087133342025e+01  8.8268101869043903e+01 -8.4278726736636713e+01 -3.9979276835552104e+00  8.6917859038636223e+01 -8.3974553021297112e+01 -7.9003202860769681e+00  8.4890242472551606e+01 -8.2984185024835639e+01 -6.2613580598280709e+00  8.5717510981938375e+01 -8.6705507456747355e+01 -6.8376786642335556e+00  7.4858756213964739e+01 -7.5455399948303594e+01 6.7349560726673940e-01  7.5281045371684087e+01 -7.7796783202105189e+01 -4.3160258080826452e-01  7.4847916158478441e+01 -7.6988866948528937e+01 -1.8824640652442187e-01  7.6157328970415975e+01 -7.6856186003666480e+01 -1.1024509843183103e+00  7.7981659399434662e+01 -7.9134539784968396e+01 -2.2723602232603137e+00  7.7042645742850439e+01 -7.8005982782855781e+01 -1.6131904097108478e+00  7.5777322832749405e+01 -7.8536315716642505e+01 -7.1530002939577142e-01  7.6631606796601048e+01 -7.9834246912723344e+01 -1.3638233600051377e+00  7.7392792425373827e+01 -8.1236546721201137e+01 -2.1025964661987975e+00  7.5392851431680754e+01 -7.6203537096236758e+01 7.7770615756535821e-01  7.7075050240339266e+01 -7.6681858908883569e+01 -3.6249090545118268e-01  7.9471351272275498e+01 -7.7075729563076180e+01 -2.3266821707310568e+00  7.8082637238907068e+01 -7.7263977899027509e+01 -7.7296859602236789e-01  7.8002374482045710e+01 -7.8824711322262218e+01 -2.1846991344593327e+00  7.6099238134327805e+01 -7.9260918633794688e+01 -9.5110201536723837e-01  7.6112809295858682e+01 -7.6965183573990842e+01 8.4700990179631286e-01  7.6142681831945069e+01 -7.5852883639609729e+01 -3.1020937957831840e-01  7.7019803871720029e+01 -7.7698214107336554e+01 -1.5155604595604926e+00  7.7319359800046158e+01 -7.6612873202884941e+01 -2.0880751785634843e+00  7.7207996092752524e+01 -7.5849434117383282e+01 -1.3278000724221597e+00  7.8285000305650826e+01 -7.6474555240150764e+01 -1.7571358351869864e+00  7.8260281245541890e+01 -7.7219397185495311e+01 -2.7377990140837269e+00  7.8118910009680761e+01 -7.5516488848203210e+01 -2.5968485916221593e+00  7.9342297814746416e+01 -7.6139337206963333e+01 -3.2084523659304502e+00  7.8584207962203962e+01 -7.8681408427455821e+01 2.2586503874757205e-01  7.7260785379452557e+01 -7.7903500838966210e+01 6.2034224860139531e-01  7.6992301666163669e+01 -8.0019861421888848e+01 -1.4782369658661536e+00  7.9398478656889708e+01 -7.8183422272599074e+01 -1.2529547710448510e+00  7.8614267161816628e+01 -8.1005214034114161e+01 -1.4458666861232710e+00  7.7656657180492616e+01 -7.9627409772912529e+01 -6.1491746408804293e-01  8.5431100529129509e+01 -5.6137124378317722e+01 -2.9290407638297278e+01  8.4600647685540523e+01 -5.6727104949609064e+01 -2.7880487075727356e+01  8.6118285330131059e+01 -5.7438162574868720e+01 -2.8700913642338119e+01  8.5366842511794246e+01 -5.8251121561516690e+01 -2.7137606262067191e+01  8.5103151404983137e+01 -6.0237391242616745e+01 -2.4897833665793620e+01  8.4453511819956248e+01 -5.8726623256121513e+01 -2.5744885295556589e+01  8.5948957861974463e+01 -5.9518040028473493e+01 -2.6466784074567535e+01  8.6762651684555323e+01 -5.8725300729987516e+01 -2.8070021100422135e+01  8.5237707253518920e+01 -5.7972598559884020e+01 -2.7290569390464341e+01  8.3758378322921303e+01 -5.7234313273339588e+01 -2.6535582354394005e+01  8.4740123288443101e+01 -5.7004061170079105e+01 -2.7747548252668626e+01  8.4016051378186035e+01 -5.7748989563260572e+01 -2.6269173528778680e+01  8.3883414299731285e+01 -5.7495630644278371e+01 -2.6394591083061723e+01  8.4573364115332282e+01 -5.8983649162943415e+01 -2.5608110815050818e+01  8.3123146857395810e+01 -5.8202421079757457e+01 -2.4936283594832648e+01  8.3743621168905165e+01 -5.9666020603530995e+01 -2.4094453160108877e+01  8.2212077008183215e+01 -5.8593681922453776e+01 -2.3632542538370675e+01  8.1997385740988889e+01 -5.8074238284409354e+01 -2.3921104122981710e+01  8.2891965440978225e+01 -5.7688098328376512e+01 -2.5208446086028907e+01  8.3520093388907128e+01 -5.9142304577550291e+01 -2.4395886275063102e+01  8.3263634960834494e+01 -5.8461649322694498e+01 -2.4793298103033063e+01  8.8029472519683878e+01 -6.1407751444491240e+01 -2.6624783417266023e+01  8.5817135140275425e+01 -5.9238547241389867e+01 -2.6600059460009401e+01  8.6541599076376912e+01 -6.0829917044952687e+01 -2.5748223024726766e+01  8.4870245705196467e+01 -5.9683616740694774e+01 -2.5185525935706270e+01  8.7412879800253123e+01 -6.0061581632079168e+01 -2.7387233808849661e+01  7.5841803963195147e+01 -7.0541251233397645e+01 -5.1913058910593763e+00  7.4898626847275594e+01 -7.0363574091760512e+01 -4.3141091900893445e+00  7.5846820974462574e+01 -7.1315340300473494e+01 -4.2850310707424049e+00  7.4962111107836009e+01 -7.1098968919926264e+01 -3.3084600163031563e+00  7.4110714319771020e+01 -7.0089173952222481e+01 -3.3829175232207658e+00  7.4985448970543302e+01 -7.0276547174394224e+01 -4.3523735494685161e+00  7.5932847884991318e+01 -7.0441401235930513e+01 -5.3339760168047228e+00  7.5747219571005814e+01 -7.2283972361709189e+01 -3.3864631211750944e+00  7.4809899137921661e+01 -7.1226771832386007e+01 -3.5122542578902749e+00  7.4976514429429756e+01 -7.1103719250050332e+01 -3.4508114010114972e+00  7.3686686213242467e+01 -7.1271091784306805e+01 -2.5724560508502519e+00  7.4049499148776604e+01 -7.0130029302280889e+01 -3.3058709687456997e+00  7.3254909504227683e+01 -6.9913706019426982e+01 -2.3478148060630946e+00  7.3867371622496506e+01 -7.0230185096397207e+01 -3.5526679289413385e+00  7.4960642497280190e+01 -7.1920991221033773e+01 -2.2274871049743061e+00  7.5520553526916487e+01 -7.3298709322468298e+01 -2.3030001952892958e+00  7.5824362625492441e+01 -7.2219417071217777e+01 -3.1845808251440406e+00  7.6004293814842910e+01 -7.0252093583925017e+01 -5.7474067332944054e+00  7.4935361197569080e+01 -7.0212488570463094e+01 -4.7273100487310140e+00  7.4979754810062715e+01 -7.0257302281915798e+01 -4.4353944729110246e+00  7.5906504218469507e+01 -7.1252481690864016e+01 -4.6669445710093154e+00  7.5915570224238607e+01 -7.1317915565370512e+01 -4.3621368721206109e+00  7.5983134803445637e+01 -7.0365652556519990e+01 -5.5066039596808176e+00  7.0956270326864242e+01 -5.8822729192870320e+01 -1.2135192741598154e+01  7.1994847076667341e+01 -5.9451937678786656e+01 -1.2533208809542606e+01  7.1002303809897654e+01 -5.8491455379737040e+01 -1.2502403483428116e+01  7.1418517016353121e+01 -6.0508701225931674e+01 -1.0886164266005707e+01  7.1781835237050515e+01 -6.2228920017766441e+01 -9.5493918395285107e+00  7.2462658949496401e+01 -6.1203401391905992e+01 -1.1248672631781329e+01  7.1460823164824504e+01 -6.0193335718471225e+01 -1.1266065497090175e+01  7.1050400676121768e+01 -5.8165252592428246e+01 -1.2883033794628689e+01  7.2047631770904943e+01 -5.9114084969126090e+01 -1.2932029350809060e+01  7.3061505901251891e+01 -6.0098788615156245e+01 -1.2954461888559260e+01  7.3525593629883261e+01 -6.1898838839448203e+01 -1.1624170012018098e+01  7.3105521523769781e+01 -5.9750770577738457e+01 -1.3359876567863397e+01  7.5283086423947296e+01 -6.1445301021551806e+01 -1.3836992838885173e+01  7.4161354644812576e+01 -6.0763764893920879e+01 -1.3393243914303708e+01  7.5286917377527743e+01 -6.2245044647472348e+01 -1.3040668767357536e+01  7.4386235981913288e+01 -6.2258286271827643e+01 -1.2120320296941435e+01  7.4155631705298802e+01 -6.1150174593735429e+01 -1.3004874927938443e+01  7.5284053481387147e+01 -6.1852417865288196e+01 -1.3430102419617040e+01  7.4403510833313348e+01 -6.1879707556781057e+01 -1.2518829165182275e+01  7.3296906905080519e+01 -6.1174551270881913e+01 -1.2109111041942102e+01  7.3513286168394714e+01 -6.2259430049625607e+01 -1.1236639677228913e+01  7.4154386468001448e+01 -6.1334192876723364e+01 -1.2813358703532051e+01  7.3298084486555396e+01 -6.1364183919166095e+01 -1.1925746009521358e+01  7.3056635569150316e+01 -6.0281720211887787e+01 -1.2768606140216317e+01  7.3058143791489755e+01 -6.0478106037273413e+01 -1.2581815610833392e+01  7.2233609297132062e+01 -6.0500058539340074e+01 -1.1722939139640635e+01  7.2648377059721412e+01 -6.2249533246427347e+01 -1.0376737087329799e+01  7.1979629996738467e+01 -5.9636578871020539e+01 -1.2348099839615797e+01  7.5485910812727184e+01 -6.3169477232553639e+01 -1.2312639180496936e+01  7.5511489461561226e+01 -6.2784326919910107e+01 -1.2725537862225893e+01  7.4585357800545296e+01 -6.3162848363073465e+01 -1.1411064199790701e+01  7.5681990322171217e+01 -6.4098931883940878e+01 -1.1575279498060862e+01  7.4593147953092483e+01 -6.2974090304456041e+01 -1.1608222421701875e+01  7.4747448418707407e+01 -6.4062691363136736e+01 -1.0673135320198650e+01  7.3701339293320785e+01 -6.2963794014764154e+01 -1.0734373912526520e+01  7.3829908477375270e+01 -6.4028951106486971e+01 -9.7989799918729474e+00  7.5979110410957503e+01 -6.5955384474636276e+01 -1.0022660246554713e+01  7.5869790910717086e+01 -6.4841377422977445e+01 -1.1027153292237264e+01  7.5710284167197926e+01 -6.3720184158212483e+01 -1.1989635360903749e+01  7.5527310294849087e+01 -6.2586487569945909e+01 -1.2936931309475032e+01  7.5848180097965511e+01 -6.5032523124171917e+01 -1.0810013729798007e+01  7.5696818211492143e+01 -6.3912212171486310e+01 -1.1781209161095232e+01  7.6405936169308703e+01 -6.2958440577714427e+01 -1.3448033897997789e+01  7.6427412476616084e+01 -6.2562040127441527e+01 -1.3867093769594847e+01  7.6630007362495604e+01 -6.3922661556174006e+01 -1.2711940994354700e+01  7.7581230196087773e+01 -6.3706581784263506e+01 -1.3885354794575541e+01  7.6986183528796360e+01 -6.5842604724335516e+01 -1.1144240463531441e+01  7.6827402875181335e+01 -6.4884971447503830e+01 -1.1943799867782788e+01  7.6841589875224813e+01 -6.4687011054789451e+01 -1.2151365823117390e+01  7.6642615785404459e+01 -6.3726505218991996e+01 -1.2920517015357440e+01  7.7815310042978325e+01 -6.4706433655438744e+01 -1.3122447846007910e+01  7.8016017665897209e+01 -6.5696237312076008e+01 -1.2321655194129004e+01  7.7598980056528887e+01 -6.3288354955429718e+01 -1.4310002326858001e+01  8.0093666043992613e+01 -6.5289289650549492e+01 -1.4803424821063249e+01  7.8811771746213907e+01 -6.4492164760669255e+01 -1.4333703330812686e+01  7.7829235862570272e+01 -6.4492814037400990e+01 -1.3334784623986573e+01  7.9051203464522573e+01 -6.5525065575862286e+01 -1.3534378868658877e+01  7.5194424186946989e+01 -8.1864156824145141e+01 -7.0067923384386266e-01  7.8269689582943300e+01 -8.1606464645377017e+01 -2.5040066655343249e+00  7.6103340635727122e+01 -8.4195554177868701e+01 -2.1277645795158238e+00  7.8689065322725995e+01 -8.2654710164190135e+01 -3.0618160113701274e+00  7.9966409552223766e+01 -8.4224135302744685e+01 -4.4967913701806523e+00  7.7459692115999871e+01 -8.5812698649780103e+01 -3.4431667872038405e+00  7.3344976052485563e+01 -8.7225934338383695e+01 -2.2605887872527797e+00  8.3477859898841061e+01 -1.2526763529291406e+02 -1.9212533095516565e-01  1.0420685825862287e+02 -9.9477769853913344e+01 -6.4060282788852640e-01  7.8386890985302927e+01 -8.8582032329440167e+01 -1.9811312259114291e+00  8.6654845612528661e+01 -8.5309765292465855e+01 7.1708915326206735e-01  8.3715478453605584e+01 -8.1901158058535572e+01 -1.4170348747977073e+00  8.0875485939756246e+01 -8.6595998156965109e+01 -2.7411770316912905e+00  8.6340603722357869e+01 -8.4830264220545885e+01 -1.1603760022694636e+00  8.0446521947115912e+01 -8.2567243180697858e+01 -2.4058793342223832e+00  9.0565049201921298e+01 -9.2828823881178224e+01 -1.7627863824526964e+00  8.9462268791160085e+01 -9.2251792283794586e+01 1.1747927182734436e-01  7.9041729990348287e+01 -8.4513490681286044e+01 -1.6128889144880001e+00  8.3717797726184628e+01 -8.3806133934368