<?xml version="1.0"?>
<VTKFile type="UnstructuredGrid"  version="0.1"  >
<UnstructuredGrid>
<Piece  NumberOfPoints="7018" NumberOfCells="26774">
<Points>
<DataArray  type="Float64"  NumberOfComponents="3"  format="ascii">40.440392 -38.31117 -4.248438  40.75992675 -37.053724 -3.18634925  40.008234 -35.820597 -3.171169  40.0150255 -36.8607555 -2.124219  41.504828 -37.24669249999999 -4.2484795  42.566556 -38.309337 -2.124107  41.503474 -38.3102535 -3.1862725  42.565398 -31.922041 8.512561  39.9891045 -31.6139625 7.396933000000001  40.437664 -32.985701 9.5766355  41.5018285 -31.921598 9.576574000000001  41.5012335 -32.986144 8.512622499999999  40.437069 -34.050247 8.512684  40.438259 -31.921155 10.640587  40.44188 -37.2477085 -5.310411500000001  40.443368 -36.184247 -6.372385  42.564172 -38.307596 2.128231  40.0138125 -37.9240925 -1.062095  41.0781075 -36.859839 -1.0620535  42.565364 -38.30846649999999 0.002062000000000008  41.501069 -39.37272 0.002020499999999981  41.0769155 -36.8589685 1.0641155  39.589659 -35.410341 0  41.502261 -39.3735905 -2.1241485  40.437966 -40.437844 -2.12419  42.56428 -36.179274 4.256445  41.068656 -34.760047 3.1712965  42.1124015 -33.715408 3.17219  42.114507 -34.75727 2.1282225  41.664734 -33.335266 0  40.618883 -33.338043 1.043074  41.6626285 -32.293404 1.0439675  41.660523 -31.251542 2.087935  40.6167775 -32.296181 2.0870415  39.573032 -33.34082 2.086148  40.439179 -39.37450699999999 -3.186314  42.564103 -40.435897 0  42.5653295 -39.372617 -1.0620535  43.6282055 -39.3717945 0  42.5641375 -39.3717465 1.0641155  41.5010345 -40.4368705 -1.062095  42.564674 -34.050772 6.384554  39.9974505 -32.653721 6.3488285  41.061615 -31.589618 6.348767  41.06125299999999 -32.6539835 5.2847635  41.5008715 -34.0505095 7.448619  42.565036 -32.9864065 7.4485575  39.557832 -31.257195 4.184973  41.0769695 -35.7948075 2.1282225  42.114453 -35.821431 1.0641155  42.564226 -37.243435 3.192338  40.6271965 -34.3728035 0  39.5813455 -34.3755805 1.043074  39.557542 -29.153459 -6.288998  39.5547225 -28.110415 -7.334861999999999  40.59970300000001 -27.070814 -7.3294835  41.06818 -29.4748065 -8.457013  39.551903 -27.067371 -8.380725999999999  41.068853 -33.695796 4.235351  40.6091775 -31.2543685 3.136454  39.565432 -32.2990075 3.1355605  29.79554 -40.447471 -12.756989  28.435247 -38.9557855 -11.608968  29.4729395 -38.959161 -10.5678995  28.435885 -40.00324000000001 -10.560875  27.07623 -39.559009 -8.364761  27.075592 -38.5115545 -9.412853999999999  28.1132845 -38.51493000000001 -8.3717855  29.150339 -37.470851 -8.37881  28.1126465 -37.46747550000001 -9.419878499999999  27.074954 -37.4641 -10.460947  27.666447 -31.934639 -23.398914  26.3559745 -29.4515035 -23.1925215  26.354124 -30.518162 -22.1277135  25.3271375 -30.5206865 -23.152176  27.6682975 -30.8679805 -24.463722  27.670148 -29.801322 -25.52853  25.328988 -29.454028 -24.216984  22.987828 -29.106734 -22.905438  24.0148145 -29.1042095 -21.8809755  25.041801 -29.101685 -20.856513  26.6014505 -30.8676285 -25.530921  26.5996 -31.934287 -24.466113  25.532753 -31.933935 -25.533312  24.2602905 -30.5203345 -24.219375  24.25753 -31.5612145 -23.181255  25.324377 -31.5615665 -22.114056  22.982307 -31.188494 -20.829198  22.9850675 -30.147614 -21.867318  24.012054 -30.1450895 -20.8428555  31.940885 -27.667883 -23.391232  29.517597 -27.3453965 -22.1370065  30.544873 -27.34402 -21.111107  30.5467935 -26.308122 -22.1450845  29.152702 -24.948361 -20.898937  28.1235055 -25.9856355 -20.890859  29.1507815 -25.984259 -19.8649595  29.148861 -27.020157 -18.830982  28.121585 -27.0215335 -19.8568815  27.094309 -27.02291 -20.882781  27.663651 -34.067139 -21.26921  26.349318 -32.6269645 -20.0237175  26.3446445 -33.672084 -18.9832715  27.374621 -32.626836 -18.998543  27.085591 -31.186533 -16.727876  25.0303115 -32.2319095 -17.737779  26.060288 -31.1866615 -17.7530505  26.0556145 -32.231781 -16.7126045  25.025638 -33.277029 -16.697333  25.034985 -31.18679 -18.778225  30.8721805 -28.734962 -23.3928575  29.803476 -29.802041 -23.394483  28.4488925 -28.4124755 -22.138632  29.4761685 -28.411099 -21.1127325  30.8744315 -27.6671555 -24.458413  28.4511435 -27.344669 -23.2041875  29.805727 -28.7342345 -24.4600385  29.807978 -27.666428 -25.525594  29.48034 -26.3073945 -23.2122655  34.075075 -25.533397 -23.391529  31.577671 -25.270848 -22.151481  32.644766 -24.203605 -22.1516295  32.6452515 -25.240453 -21.114296  33.00798 -26.60064 -23.3913805  31.5781565 -26.307696 -21.1141475  31.215428 -24.947509 -18.837063  31.2149425 -23.910661 -19.8743965  31.214457 -22.873813 -20.91173  40.453581 -29.797184 -12.749236  40.002742 -28.4322775 -10.564981  40.00096 -27.3902785 -11.608762  41.0668895 -27.366561 -10.5665495  41.5177285 -28.7314675 -12.7508045  39.548339 -24.983373 -10.468288  39.550121 -26.025372 -9.424506999999998  25.54829 -25.526223 -31.925487  23.222428 -25.2517885 -30.525783  25.545773 -26.594219 -30.8600075  24.479791 -26.5933575 -31.926852  23.411292 -27.660492 -31.928217  23.219911 -26.3197845 -29.4603035  22.153929 -26.318923 -30.527148  24.477274 -27.6613535 -30.8613725  25.543256 -27.662215 -29.794528  20.896566 -24.977354 -29.126079  31.927422 -38.319939 -12.752639  29.501188 -37.8920195 -11.606793  30.5388805 -37.895395 -10.5657245  30.861481 -39.383705 -12.754814  27.4226385 -29.451863 -22.125498  27.3822285 -28.412116 -23.2056555  28.736812 -29.8016815 -24.4615065  26.068055 -28.0622975 -20.869647  25.319827 -26.3177225 -27.3624505  24.253632 -26.316516 -28.4298515  24.263395 -27.348076 -27.3885285  26.609451 -27.6634215 -28.727127  27.675646 -27.664628 -27.659726  25.32959 -27.3492825 -26.3211275  22.983534 -27.033937 -24.982529  22.973771 -26.002377 -26.023852  22.964008 -24.970817 -27.065175  29.813426 -25.530034 -27.656539  27.379379 -25.2767815 -26.34384  28.448269 -24.2094845 -26.3422465  28.4520005 -25.2404 -25.3075995  28.744536 -26.597331 -27.6581325  27.3831105 -26.307697 -25.309193  27.090575 -24.950766 -22.95866  27.0868435 -23.9198505 -23.993307  27.083112 -22.888935 -25.027954  34.071853 -27.667902 -21.260245  32.6436405 -26.3077055 -20.048654  33.006369 -27.6678925 -22.3257385  34.073464 -26.6006495 -22.325887  36.201256 -27.667422 -19.131321  34.742816 -26.310173 -17.9470105  35.7851815 -25.275955 -17.938863  35.7853135 -26.315885 -16.898801  35.369371 -24.964348 -14.666281  34.3268735 -24.958636 -15.7144905  35.369239 -23.924418 -15.706343  35.369107 -22.884488 -16.746405  34.3267415 -23.918706 -16.7545525  33.284376 -24.952924 -16.7627  38.333484 -25.534165 -19.132351  36.8512955 -24.2093265 -17.939378  36.8514275 -25.2492565 -16.899316  37.26737 -26.6007935 -19.131836  31.930552 -34.065257 -17.004192  30.538696 -32.629247 -15.8320575  30.536262 -33.67349400000001 -14.7902445  31.5715985 -32.6323115 -14.796091  31.212645 -31.199366 -12.58799  29.144406 -32.237484 -13.61811  30.1797425 -31.1963015 -13.6239565  30.1773085 -32.2405485 -12.5821435  29.141972 -33.281731 -12.576297  29.14684 -31.193237 -14.659923  34.079532 -23.398003 -25.522465  31.5825215 -22.102765 -25.314714  31.5812955 -23.170393 -24.2483125  32.648684 -22.1033535 -24.247963  33.0133695 -23.3974145 -26.589216  33.0121435 -24.4650425 -25.5228145  31.944755 -25.532082 -25.523164  31.945981 -24.464454 -26.5895655  31.947207 -23.396826 -27.655967  31.217836 -20.808704 -22.973461  34.055904 -40.444042 -8.500054  31.6044875 -40.004172 -7.3913405  32.6426855 -38.9612125 -7.396102000000001  32.6469165 -40.0085905 -6.3444925  31.237929 -39.573139 -4.188931  30.1955 -39.5687205 -5.235779  31.233698 -38.525761 -5.2405405  31.229467 -37.478383 -6.29215  30.191269 -38.5213425 -6.2873885  29.153071 -39.564302 -6.282627  29.4706225 -36.8491365 -12.680241  30.5364845 -36.8479705 -11.615545  30.86156 -38.321105 -13.817335  29.795698 -38.322271 -14.882031  28.435326 -37.8931855 -12.671489  28.1102505 -36.420051 -10.469699  29.145547 -35.376002 -10.478451  29.4789165 -22.1056805 -27.415403  30.5444385 -22.106889 -26.348672  30.543278 -21.075487 -27.381235  30.881685 -23.3956175 -28.722698  29.816163 -23.394409 -29.789429  29.14167 -20.816952 -25.041377  27.680274 -25.528343 -29.791383  27.381693 -24.208639 -27.4096685  26.3476555 -24.2145495 -28.437795  27.375879 -23.1785285 -28.4455925  27.071484 -20.828714 -27.099802  27.077298 -21.8588245 -26.063878  26.0432605 -21.864735 -27.0920045  25.015037 -22.900756 -27.084207  26.0490745 -22.8948455 -26.0560805  31.932878 -31.934519 -19.132603  30.5403065 -30.5194015 -17.9402915  31.571096 -30.5219875 -16.9069165  30.539859 -31.563878 -16.896263  29.1472875 -30.1487605 -15.7039515  30.178077 -30.1513465 -14.6705765  31.209314 -29.109456 -14.68123  30.1785245 -29.10687 -15.714605  29.147735 -29.104284 -16.74798  29.797522 -34.065792 -19.136687  28.4415565 -32.6261625 -17.9322815  28.439285 -33.67202450000001 -16.8886905  29.472181 -32.6295145 -16.898305  27.0833195 -32.232395 -15.684285  28.1162155 -31.189885 -15.6938995  28.113944 -32.235747 -14.6503085  27.081048 -33.278257 -14.640694  29.5092345 -31.560526 -17.9302395  28.116663 -30.1454085 -16.737928  34.064397 -31.932511 -17.003092  31.6056185 -31.562874 -15.8315075  32.9986375 -31.933515 -18.0678475  32.9974745 -32.998884 -17.003642  31.931715 -32.999888 -18.0683975  34.059882 -36.191148 -12.74897  32.6400005 -33.677178 -12.6828215  33.70472 -33.675911 -11.6193685  32.638966 -34.741428 -11.619606  34.0609165 -35.126898 -13.8121855  35.125636 -35.125631 -12.7487325  36.19139 -34.060114 -12.748495  35.1266705 -34.061381 -13.811948  34.061951 -34.062648 -14.875401  31.21805 -33.291708 -10.490242  36.195125 -31.931148 -14.873727  34.7435805 -29.4609175 -14.795502  35.7804245 -29.488701 -13.7308745  34.742068 -30.526539 -13.7313925  36.19663749999999 -30.8655265 -15.9378365  36.19815 -29.799905 -17.001946  35.781937 -28.4230795 -14.794984  33.289011 -29.12193 -12.589058  34.3273675 -28.084092 -12.58854  35.365724 -27.046254 -12.588022  31.926499 -40.446107 -10.627394  30.538419 -38.958479 -9.503102  31.9269605 -39.3830229999999
[...]
<PointData  Vectors="u"> 
<DataArray  type="Float64"  Name="u"  NumberOfComponents="3" format="ascii">6.4581422983312521e+01 5.9812689924280150e+01 4.7913159444648175e+00  6.5707476092239318e+01 6.1257746587010303e+01 4.1171572246604073e+00  6.6535360591643439e+01 6.1098421703960931e+01 5.1064643540477839e+00  6.5089921774249021e+01 6.1067218806884348e+01 3.2878585961429576e+00  6.6356477957626410e+01 6.1457130286751116e+01 4.8727466964162831e+00  6.5098821473996765e+01 6.2978892648007481e+01 2.0266308280023702e+00  6.4796701846688649e+01 6.1436110532810183e+01 3.4031642363441343e+00  7.5263443272566292e+01 6.2228451544635007e+01 -1.3037055156429872e+01  7.3038972835910982e+01 6.0075743736100527e+01 -1.2953907795830830e+01  7.2547424456496870e+01 5.8299367195908800e+01 -1.4250344692304514e+01  7.4752889193242638e+01 5.9935410650687665e+01 -1.4815758549523732e+01  7.3042239766693413e+01 6.0428373297756529e+01 -1.2617011418304648e+01  7.0948214237452916e+01 5.8792400310072615e+01 -1.2158100988532498e+01  7.4119925586293746e+01 5.7677838072417501e+01 -1.6440610751754367e+01  6.6165785126671281e+01 5.9703326322222992e+01 6.4448758821401171e+00  6.7732996861466006e+01 5.9492160566889545e+01 8.2570502769049110e+00  6.5040496745299095e+01 6.3016019477598796e+01 -2.1748925162275929e+00  6.3768059882972786e+01 6.0803616668772705e+01 1.4302387715283909e+00  6.5511054749329475e+01 6.2462859069605877e+01 1.4000420607275250e+00  6.4851884530645236e+01 6.3276016155269843e+01 -4.2266626713997058e-02  6.3101259518490295e+01 6.1617874272707731e+01 2.5082321351411626e-03  6.5546538478014128e+01 6.2444949201643716e+01 -1.4947214746688107e+00  6.4971529793885992e+01 6.2865587683437852e+01 -7.7118780744916363e-02  6.3323185696657418e+01 6.1344729127635745e+01 2.0041913932482553e+00  6.1697533639773233e+01 5.9658389047639375e+01 1.9107827270983790e+00  6.8189112997861514e+01 6.3141256614896577e+01 -5.0807375005781363e+00  6.8338717340591785e+01 6.2814851609013594e+01 -5.1321076096981972e+00  7.0217584726641064e+01 6.4519223023553124e+01 -5.3450643120637205e+00  6.8652316861503749e+01 6.4454895324910765e+01 -3.3726562669066662e+00  6.8395402873353220e+01 6.6343428645312741e+01 -3.7941838637898678e-01  6.8288348212243534e+01 6.4625703823069117e+01 -3.6728048579910002e+00  7.0122680269478352e+01 6.6419922958459892e+01 -3.7086119515118665e+00  7.2054787208287919e+01 6.6231720224016996e+01 -5.7447330446056526e+00  7.0142817531260405e+01 6.4419358828980549e+01 -5.6713784633033280e+00  6.8248942270315268e+01 6.2723087635784871e+01 -5.4615975368868517e+00  6.3099116148702905e+01 5.9845019663621727e+01 3.2888631773590751e+00  6.2398643867575714e+01 6.2331575226238492e+01 -1.2791728745215969e-02  6.3634461227477182e+01 6.2801320672458715e+01 9.4421813708813918e-01  6.4046512797320617e+01 6.4078255008191988e+01 -2.8624149549482895e-02  6.3629611752466822e+01 6.2767122661925612e+01 -8.4732453626904236e-01  6.1923111517267188e+01 6.1107878994863746e+01 9.2577816485387432e-01  7.1639482503290608e+01 6.2869922090240323e+01 -8.7814390759551539e+00  7.1399055723574676e+01 6.0492526449363446e+01 -1.0883545697465523e+01  7.3492544364845159e+01 6.2233234875213228e+01 -1.1237271973245715e+01  7.1707217349196341e+01 6.2525199442982263e+01 -9.1223993692525838e+00  7.1340395695404581e+01 6.0828374647064273e+01 -1.0507358761218336e+01  7.3443401656782669e+01 6.2597793180414548e+01 -1.0848061319387611e+01  7.1739820628766424e+01 6.2220829397707703e+01 -9.5190924463933069e+00  6.6873693540359454e+01 6.2710666850411940e+01 -3.4200685216505335e+00  6.7314951772807348e+01 6.4047395528405033e+01 -1.6466375612190045e+00  6.6573367841653877e+01 6.3177320181980264e+01 -3.4206139856906015e+00  6.6587314661574396e+01 6.4670188081091069e+01 -2.3748406369046363e-01  6.6516425694517594e+01 6.2931113394973146e+01 -3.5610443160161118e+00  7.5292759424642014e+01 6.1457530200695508e+01 1.3832128928769349e+01  7.7039821474325038e+01 6.0902503035726888e+01 1.6145006113400019e+01  7.9500581648500571e+01 6.2713029319844111e+01 1.6791024084188692e+01  7.7089547949675250e+01 6.1308616755479548e+01 1.5785565025104772e+01  7.8782301770531532e+01 6.0158471322813789e+01 1.8619481883720919e+01  7.0015581234230325e+01 6.2719256495898499e+01 -7.1415278624276484e+00  7.1957301351997828e+01 6.4232842074083990e+01 -7.7186290660650130e+00  7.0015283260385971e+01 6.2476366182673765e+01 -7.5348851682286178e+00  5.8924663195453135e+01 4.4657008953835152e+01 1.4268989174983160e+01  5.9051353274070387e+01 4.4553214571844485e+01 1.4496327839669378e+01  5.9446149445311875e+01 4.5895025313366077e+01 1.3547815110176463e+01  5.8125651943285540e+01 4.4941804301157902e+01 1.3178752119385731e+01  5.7287690422334883e+01 4.5170188994164732e+01 1.2120444944614231e+01  5.8248251515991043e+01 4.4844406308201506e+01 1.3404735664711398e+01  5.8582756239528536e+01 4.6155619882982833e+01 1.2423332147486478e+01  5.9958936540118835e+01 4.7187598839032994e+01 1.2773607850030386e+01  5.9593833683349416e+01 4.5797870412674690e+01 1.3790557471762446e+01  5.9175703507446229e+01 4.4459965720342296e+01 1.4717496662871067e+01  6.2543624183751575e+01 3.6051643228443133e+01 2.6494291022884212e+01  6.2864081424477092e+01 3.4962182824116034e+01 2.7900985069674746e+01  6.2588713290545151e+01 3.5999510089556203e+01 2.6588329682440889e+01  6.1621823197961476e+01 3.4768671533888408e+01 2.6849903853307353e+01  6.2818684273288788e+01 3.5018264614764931e+01 2.7800965109213347e+01  6.3019960845054072e+01 3.3922423906552766e+01 2.9098436717371616e+01  6.1837523318566468e+01 3.3741771895041090e+01 2.8098154088666814e+01  6.0699852036642717e+01 3.3542632349094447e+01 2.7156017859307777e+01  6.1663243558899538e+01 3.4708818994670231e+01 2.6952221210667300e+01  6.2632223252793295e+01 3.5947172778287701e+01 2.6685391082333314e+01  6.1770883045121337e+01 3.3746517973556664e+01 2.8022774921238689e+01  6.1542252700124592e+01 3.4767330625756223e+01 2.6774082016662689e+01  6.0558906139943531e+01 3.3554542295938546e+01 2.7005421896985776e+01  6.0629662137431403e+01 3.3546209951948221e+01 2.7083561800138767e+01  6.0390675905930770e+01 3.4473496539121740e+01 2.5919545672295971e+01  6.1334988976286546e+01 3.5710243114395020e+01 2.5626966365217513e+01  6.0175866007653127e+01 3.5364181185259049e+01 2.4810638798623849e+01  6.0458245912101205e+01 3.4469078187771480e+01 2.5990463668358167e+01  6.1379793293340441e+01 3.5661589939671657e+01 2.5719913807626622e+01  6.8337607612802941e+01 3.7132939513269875e+01 3.1203864607890761e+01  6.6781308343186822e+01 3.6809965866443655e+01 2.9975694772576649e+01  6.8004197151544886e+01 3.8300342249236998e+01 2.9699328060216608e+01  6.8265016851638805e+01 3.7019968462913091e+01 3.1245169212138180e+01  6.8184636336378134e+01 3.6886034996805058e+01 3.1298820726979827e+01  6.6708115700025161e+01 3.6690162323562319e+01 3.0019002576346100e+01  6.7931947469564847e+01 3.8172967292795931e+01 2.9757894429703516e+01  6.7601507440081917e+01 3.9394262304843330e+01 2.8208940316256101e+01  6.6444118240952875e+01 3.7888098088440572e+01 2.8550613309149263e+01  6.5290040493187149e+01 3.6458384923549779e+01 2.8833538293795737e+01  6.1783574039968585e+01 3.7955241321394247e+01 2.3829685117522796e+01  6.1838832188079202e+01 3.7882087700386585e+01 2.3956365032311922e+01  6.1372965181136436e+01 3.8728285311408840e+01 2.2643331503458629e+01  6.2702789471949465e+01 3.9207117896887283e+01 2.3493035259894377e+01  6.3634851522956865e+01 4.0523227727034104e+01 2.3112523915349531e+01  6.1424842201449152e+01 3.8658261076021212e+01 2.2767924919153110e+01  6.2775765820182315e+01 3.9137241530753684e+01 2.3633759536933837e+01  6.2237877521498213e+01 3.9981832472476199e+01 2.2254960635114653e+01  6.0907686347186761e+01 3.9448930553981164e+01 2.1459582935004665e+01  6.1900093112056489e+01 3.7819278162323812e+01 2.4081478167293302e+01  6.6797144253423468e+01 3.6899689718803920e+01 2.9900175444376032e+01  6.5312358235341677e+01 3.6640277811244950e+01 2.8670071552772612e+01  6.5301845391726985e+01 3.6554167263141750e+01 2.8747906249718131e+01  6.6445398001858038e+01 3.7983643867472360e+01 2.8459971255465913e+01  6.6991579929461935e+01 3.5618532840933391e+01 3.1373995181860369e+01  6.5525436618619239e+01 3.5350083435490916e+01 3.0172282962961084e+01  6.5540494663191211e+01 3.5446382086884263e+01 3.0095975151052500e+01  6.5686108254977313e+01 3.4181416880108479e+01 3.1502420364002230e+01  6.6917806949918855e+01 3.5492903582350586e+01 3.1425120672186068e+01  7.1638252492016775e+01 3.7479335582960132e+01 3.4158317003061690e+01  6.9820574906593833e+01 3.7191826113896575e+01 3.2633644101679629e+01  7.1493047329634791e+01 3.7341530301620701e+01 3.4151965966090373e+01  7.1308783707922871e+01 3.8844487818490535e+01 3.2457985125695757e+01  6.9957930421514988e+01 3.7327490049835440e+01 3.2632850930683155e+01  6.9598282123186834e+01 3.8582357609907874e+01 3.1015911140062492e+01  7.0886864705700788e+01 4.0120028797980069e+01 3.0770424844736333e+01  7.1168586100904577e+01 3.8688370309629185e+01 3.2479205308773786e+01  7.1343476093405258e+01 3.7177719434115595e+01 3.4165998463183833e+01  7.7144616175419216e+01 5.6033058575981549e+01 2.1110666755961951e+01  7.7998164565470148e+01 5.8063589864622983e+01 1.9942896512922868e+01  7.9507339086248365e+01 5.7063356944373886e+01 2.2452222281635752e+01  8.0599893524920603e+01 5.9711587498699274e+01 2.0897435825878709e+01  7.9696634872997450e+01 5.7516272449559139e+01 2.2184058136373075e+01  8.2035334254296046e+01 5.8110826507857666e+01 2.3920934100409337e+01  8.0449320156913259e+01 5.9261116671539966e+01 2.1196591974671939e+01  6.0575257264833176e+01 2.7011188036952579e+01 3.3565460004287843e+01  5.9689346120625061e+01 2.7251836935972271e+01 3.2434670268504917e+01  6.0742539469652492e+01 2.8180066335607634e+01 3.2564257581660911e+01  5.9609363720047980e+01 2.7188520585666460e+01 3.2420512580705001e+01  5.8662275995622622e+01 2.7331562453632209e+01 3.1330650855267109e+01  5.9810748541182626e+01 2.8359634602189736e+01 3.1451539891701156e+01  5.8737165617388513e+01 2.7395549695741447e+01 3.1341757756390351e+01  5.9734918931232770e+01 2.8301014590132947e+01 3.1433414512729478e+01  6.0845096247486971e+01 2.9320508605958384e+01 3.1524678464928911e+01  5.8809683132476636e+01 2.7450165554675753e+01 3.1357760410507318e+01  6.1778320212396750e+01 4.6590479722600271e+01 1.5189766826105021e+01  6.0439842241751975e+01 4.5498265678877701e+01 1.4943862483630699e+01  6.0885210249698574e+01 4.6920458769136800e+01 1.3961154706829330e+01  6.0295886671174998e+01 4.5601898748245802e+01 1.4693107945804002e+01  6.3943222870275818e+01 3.6299408624961877e+01 2.7647697214748380e+01  6.4143637991974245e+01 3.5162654643776087e+01 2.8978206546943095e+01  6.4157821637845032e+01 3.5245273750897873e+01 2.8910405907021829e+01  6.3936398405518034e+01 3.6217836183804337e+01 2.7719522484008635e+01  6.2045764415086559e+01 3.0458932950628938e+01 3.1585567412185004e+01  6.0892830547815166e+01 2.9357395154350179e+01 3.1534711153876977e+01  6.0929803561074337e+01 3.0445924150098872e+01 3.0486812961536430e+01  6.1995044087996838e+01 3.0425997704084235e+01 3.1569388595706325e+01  6.3184728323884620e+01 3.1588129712426298e+01 3.1595022048616688e+01  6.2052486910752819e+01 3.1586473377134048e+01 3.0466135214383868e+01  6.0953561555950508e+01 3.1538731901846585e+01 2.9414381768708459e+01  6.0973160340579255e+01 3.0476838095126563e+01 3.0496032804904086e+01  6.0928126412193407e+01 2.9383922219381549e+01 3.1545706059590252e+01  6.5689852784197981e+01 3.1509382915343949e+01 3.4183358761324726e+01  6.4383723513436379e+01 3.1553532570860472e+01 3.2833288910363635e+01  6.5652120277353276e+01 3.1490836647698174e+01 3.4161178132359879e+01  6.5694778197110125e+01 3.2805325885542175e+01 3.2885877423074398e+01  6.4423261545043133e+01 3.1569792092512511e+01 3.2854894269765069e+01  6.4388079347533520e+01 3.2790425747868149e+01 3.1595883493864260e+01  6.5624263915585090e+01 3.4054884205078515e+01 3.1570709527627823e+01  6.5649884074041282e+01 3.2776646851078318e+01 3.2871124730512214e+01  6.5601371938520074e+01 3.1463621711530564e+01 3.4135973862513090e+01  7.1127613954232586e+01 4.0504372185859289e+01 3.0622901141219831e+01  7.1007716107639183e+01 4.0318280909270975e+01 3.0689349882259847e+01  6.9717221593920513e+01 3.8777868723943655e+01 3.0939660389570601e+01  7.1449304791942339e+01 3.9046793654573364e+01 3.2400781900862000e+01  7.4021252576438187e+01 4.4347761733699549e+01 2.9672992860462060e+01  7.3857488288013997e+01 4.4086193289820486e+01 2.9771908728495106e+01  7.5910859783503483e+01 4.4647156422450379e+01 3.1269852432759606e+01  7.5294967134340482e+01 4.6140055281082176e+01 2.9156627578707067e+01  7.6578120423591102e+01 4.8039342910390040e+01 2.8537910516732783e+01  7.5143734354499983e+01 4.5880744748965334e+01 2.9260798595982337e+01  7.7300920857552583e+01 4.6532459794700685e+01 3.0768916245597907e+01  7.7881564263084371e+01 4.4885661792363308e+01 3.2995714503404187e+01  7.5716524751108622e+01 4.4350987474440196e+01 3.1371770751417884e+01  7.3700173918979033e+01 4.3806859138124736e+01 2.9894802102793403e+01  7.8375853358771835e+01 4.5490268311344742e+01 3.2885205956769283e+01  7.8127561351044747e+01 4.5191030802369660e+01 3.2937709502199340e+01  7.7527275215188126e+01 4.6832421749491751e+01 3.0686422808311491e+01  7.6148392583604874e+01 4.4927682374423341e+01 3.1223277553908865e+01  6.5315083104859241e+01 4.3858926250841051e+01 2.1456276309239339e+01  6.5332839954376297e+01 4.3682486973492587e+01 2.1650223074158109e+01  6.4571885096295475e+01 4.4499158032693465e+01 2.0069798331601881e+01  6.6166579252197195e+01 4.5292711420386318e+01 2.0871197203531757e+01  6.7021813958448149e+01 4.6781791762342799e+01 2.0242268213347860e+01  6.4591967940149559e+01 4.4320936778187026e+01 2.0273038476320970e+01  6.6209070030875935e+01 4.5110805973715827e+01 2.1090149308757830e+01  6.5355057747704549e+01 4.5904708865582208e+01 1.9445855279869583e+01  6.3783016914027563e+01 4.5061410680548761e+01 1.8723160537321029e+01  6.5355997722828917e+01 4.3513259062355083e+01 2.1843902170918142e+01  7.1643713650620953e+01 3.4164658787115457e+01 3.7481819361082543e+01  6.9817173096588348e+01 3.2559741358054367e+01 3.7260133049297409e+01  6.9936204184880779e+01 3.4173641427256129e+01 3.5767240595306433e+01  7.1493026375478578e+01 3.4084088385444197e+01 3.7408262817788824e+01  6.9961906047927556e+01 3.2637059782690734e+01 3.7324690502931354e+01  7.0082389754583687e+01 3.4248341708015317e+01 3.5835947085920388e+01  6.8557507831192368e+01 3.4278519959514874e+01 3.4276882723676302e+01  6.8494823411018217e+01 3.2763964897269446e+01 3.5728150604056381e+01  6.8343207392369450e+01 3.1206722962483909e+01 3.7137244441333834e+01  7.1339776088151211e+01 3.3996240624813169e+01 3.7342624643208602e+01  6.0309845893472016e+01 5.0405100305003970e+01 9.9102136243533323e+00  5.9004583637011315e+01 4.9054786516716696e+01 9.9404532270920729e+00  6.0462344099810721e+01 5.0245245012500234e+01 1.0206279387009250e+01  5.9230670003266894e+01 5.0499311660053294e+01 8.7014471105270133e+00  5.8095314854322382e+01 5.0573437876984848e+01 7.5272922684807400e+00  5.7958654565507203e+01 4.9138934180505302e+01 8.8118295314054258e+00  5.9373192212825863e+01 5.0355309816799213e+01 9.0165285395311177e+00  6.0606168394627481e+01 5.0099125941326548e+01 1.0510742124821450e+01  5.9145030972245578e+01 4.8911011881616524e+01 1.0229215677886904e+01  5.7758779875599487e+01 4.7770261236184439e+01 9.9926986101227850e+00  6.1333571251769619e+01 4.4954509365918391e+01 1.6376660691409249e+01  6.1875041811461962e+01 4.6434132085877337e+01 1.5439937838758510e+01  6.1252458553741484e+01 4.5111547662693496e+01 1.6139213506663729e+01  6.0687824937803370e+01 4.3675088381425262e+01 1.7014623287495329e+01  5.9952522073195397e+01 4.4098597787875477e+01 1.5851257228078603e+01  6.0534044506648925e+01 4.5353574165069958e+01 1.5177313759321974e+01  6.1973209357825944e+01 4.6287872986345455e+01 1.5687157357691920e+01  6.6720810631722074e+01 2.9886449870152827e+01 3.6837469492736282e+01  6.8254128035087717e+01 3.1188694450685034e+01 3.7065332265437952e+01  6.7992559332526312e+01 2.9645673452059956e+01 3.8341785137117263e+01  6.6799431949535332e+01 2.9901908179204945e+01 3.6900957479803438e+01  6.5326878630309679e+01 2.8685913961477933e+01 3.6640906121094410e+01  6.8151215470596100e+01 3.1155753806433424e+01 3.6994197580359113e+01  6.3029465163004765e+01 2.9098863315974690e+01 3.3931734252551273e+01  6.4299438552507951e+01 3.0249667564046366e+01 3.4050684058461968e+01  6.3036497533977489e+01 2.9129892662630031e+01 3.3906005852974722e+01  6.4127942179083092e+01 2.8941257835673216e+01 3.5184803238266738e+01  6.5251066829517455e+01 2.8740330469628002e+01 3.6515160080105197e+01  6.5461725891882381e+01 3.0111008386359789e+01 3.5350703383072990e+01  6.4137870921482985e+01 2.8970658203606661e+01 3.5162521081524069e+01  6.3034463977498994e+01 2.9150984419352014e+01 3.3883620373233853e+01  6.4299308560195456e+01 3.0274141401854084e+01 3.4027827025897388e+01  6.6672584168810445e+01 4.1956216808287671e+01 2.4714556632498756e+01  6.6658877618574621e+01 4.1788973110490232e+01 2.4870125431052717e+01  6.7668925793469853e+01 4.3414899058672553e+01 2.4252695728707391e+01  6.6046949691645821e+01 4.2778939269399615e+01 2.3264871951251642e+01  6.6026698602164245e+01 4.2600573349781250e+01 2.3428045953922332e+01  6.6966263582289926e+01 4.4217521395379904e+01 2.2744276709357877e+01  6.8670446860283789e+01 4.4937166136969381e+01 2.3735272643266391e+01  6.7669108764620873e+01 4.3236520526485201e+01 2.4425656726076987e+01  6.6643862799228032e+01 4.1613921015025973e+01 2.5032192076729682e+01  6.3561188176953969e+01 4.0764369937867194e+01 2.2797940316924265e+01  6.3596218548086412e+01 4.0641179826013193e+01 2.2954661186362436e+01  6.2994823952098884e+01 4.1484100171812464e+01 2.1508353653594817e+01  6.4455023222458451e+01 4.2109100555445139e+01 2.2343305819835116e+01  6.3027305859437895e+01 4.1358419324404451e+01 2.1670534695029339e+01  6.4510199708236399e+01 4.1982021305443467e+01 2.2522497780200620e+01  6.3826155139880392e+01 4.2814144116614138e+01 2.1009734423793059e+01  6.2375586160414343e+01 4.2135959243353902e+01 2.0240753741934206e+01  6.5112661237731331e+01 4.1230763293488899e+01 2.3886582517271183e+01  6.5102178723868320e+01 4.1069327292668220e+01 2.4031626641398002e+01  6.8740396350015345e+01 4.5408441541513461e+01 2.3330369502209987e+01  6.6999307878794426e+01 4.4443366416047603e+01 2.2561469662545907e+01  6.7714720797552829e+01 4.3646316250964624e+01 2.4066610772371522e+01  6.6984394501023871e+01 4.4624549000427955e+01 2.2358571907840741e+01  6.6027597568111204e+01 4.2957484019645271e+01 2.3072736804600996e+01  6.4967183144301984e+01 4.8655255677561733e+01 1.6311276430746325e+01  6.6059054101277923e+01 4.7776871933750542e+01 1.8278196272804617e+01  6.6771343421354715e+01 4.9531067359456486e+01 1.7242213950845890e+01  6.5031266146294740e+01 4.8450378012705634e+01 1.6580613974646525e+01  6.6010369228859318e+01 4.8005581528762960e+01 1.8008785160028342e+01  6.6710691369354578e+01 4.9750167486209556e+01 1.6964521892524541e+01  6.8543941655213715e+01 5.0886800403377826e+01 1.7657381263413914e+01  6.7791551933403142e+01 4.9037124108073023e+01 1.8752713463708080e+01  6.6991822333566532e+01 4.7234104593815296e+01 1.9756025122837904e+01  6.5094448064585890e+01 4.8241821131727953e+01 1.6855009481518863e+01  7.0734067797233422e+01 4.9202458498977755e+01 2.1531519790046676e+01  7.1642346216340911e+01 4.7878019895832466e+01 2.3758462729051153e+01  7.2680525033239562e+01 4.9914725556952746e+01 2.2769929295145143e+01  7.0687533226007488e+01 4.8921877990636432e+01 2.1765242786601117e+01  7.1723953328130378e+01 4.8197897855667996e+01 2.3523787228818374e+01  7.2593873873018808e+01 4.7027748830290086e+01 2.5565904942645229e+01  7.3670938775825903e+01 4.8779859209977090e+01 2.4892524294023080e+01  7.0641215470471991e+01 4.8623370107203264e+01 2.2018713788939777e+01  7.2619286606998045e+01 4.9589469334683564e+01 2.3