<?xml version="1.0"?>
<VTKFile type="UnstructuredGrid"  version="0.1"  >
<UnstructuredGrid>
<Piece  NumberOfPoints="6012" NumberOfCells="27900">
<Points>
<DataArray  type="Float64"  NumberOfComponents="3"  format="ascii">48.948718 -34.051282 0  47.88530625 -34.0514245 0.0008359999999999479  47.884628 -34.58331925 0.53205275  48.41667925 -34.051268 0.53205275  47.8846405 -34.051254 1.0641055  47.3532675 -34.0514105 0.5328887499999999  47.35258925 -34.58330525 1.0641055  46.820538 -35.1153565 1.0641055  46.82121625 -34.58346175 0.5328887499999999  46.8218945 -34.051567 0.001671999999999896  48.41666675 -34.58333325 0  47.8846155 -35.1153845 0  47.353255 -34.58347575000001 0.0008359999999999479  47.35257675 -35.1153705 0.53205275  48.417345 -34.0514385 -0.53121675  47.35393325 -34.051581 -0.5303807500000001  47.88529375 -34.58348975 -0.53121675  47.885972 -34.051595 -1.0624335  46.820513 -36.179487 0  46.82120375 -35.115527 0.0008359999999999479  46.82119125 -35.64759225 -0.53121675  47.35256425 -35.64743575 0  46.821882 -34.58363224999999 -0.5303807500000001  47.35324249999999 -35.115541 -0.53121675  46.8218695 -35.1156975 -1.0624335  46.8205255 -35.64742175000001 0.53205275  46.820563 -34.051226 2.128211  46.82122875 -34.0513965 1.0649415  46.8205505 -34.58329125 1.59615825  47.35260175000001 -34.05124 1.59615825  46.823226 -34.051908 -2.124867  46.82256025 -34.0517375 -1.0615975  46.82254775 -34.58380275 -1.59365025  47.35392075 -34.58364625 -1.0624335  47.35459899999999 -34.05175149999999 -1.59365025  45.52281675 -33.3489825 2.12820075  45.5227695 -33.8810705 1.59616  46.05481725 -33.3490245 1.59615825  45.2890715 -32.646823 1.0641055  44.22502325 -33.178827 1.59614975  44.757071 -32.646781 1.596148  44.75702375 -33.178869 1.06410725  44.224976 -33.710915 1.064109  44.2250705 -32.646739 2.1281905  46.2885625 -34.051184 2.6602535  45.756562 -34.051142 3.192296  44.99081625 -33.3489405 2.66024325  44.990769 -33.8810285 2.1282025  45.75651474999999 -34.58323 2.66025525  45.22451425 -34.583188 3.19229775  44.69246649999999 -35.115234 3.1922995  44.45872125 -34.4130745 2.12820425  46.28851525 -34.583272 2.12821275  45.7564675 -35.115318 2.1282145  44.99072175 -34.4131165 1.59616175  45.224467 -35.115276 2.660257  44.692372 -36.17941 2.128218  44.458674 -34.9451625 1.5961635  44.69241925 -35.647322 2.66025875  45.22441975 -35.647364 2.12821625  44.692561 -34.051058 4.256381  44.45881575 -33.3488985 3.19228575  44.4587685 -33.8809865 2.660245  45.2245615 -34.0511 3.7243385  44.69251375 -34.583146 3.72434025  43.75758 -31.24242 0  43.99132525 -31.9445795 1.06409525  43.99127799999999 -32.4766675 0.5320545  44.52332575 -31.9446215 0.53205275  50 -14.142136 0  50.6666595 -14.62276575 0.772551  50.66372425 -14.74936875 0.0113415  50.6666595 -14.12287275 0.36856375  51.333319 -14.1036095 0.7371275  51.33038375 -15.2299985 0.7838925  51.333319 -14.6035025 1.14111475  51.33038375 -14.7301055 0.37990525  51.3274485 -15.3566015 0.022683  51.333319 -15.1033955 1.545102  50 -14.642029 0.40398725  50 -15.141922 0.8079745  50.6666595 -15.12265875 1.17653825  50.66372425 -15.24926175 0.41532875  50 -16.141708 1.615949  50.66372425 -16.24904775 1.22330325  50.6666595 -15.62255175 1.5805255  50.66372425 -15.74915475 0.819316  51.3274485 -15.8564945 0.42667025  51.33038375 -15.7298915 1.18787975  51.3274485 -16.3563875 0.8306575  50 -15.641815 1.21196175  52.666638 -14.065083 1.474255  52.66370275 -14.691579 1.11703275  51.9999785 -14.58423925 1.5096785  51.99704325 -14.71084225 0.7484690000000001  51.99704325 -15.21073525 1.15245625  51.994108 -15.33733825 0.39124675  52.6607675 -15.318075 0.7598105000000001  51.9999785 -14.08434625 1.10569125  52.654897 -16.571067 0.045366  52.65783225 -15.944571 0.40258825  51.994108 -15.83723125 0.795234  51.99117275 -15.96383425 0.0340245  51.99117275 -16.46372725 0.43801175  55.333333 -18.542862 -5.294445  54.5887855 -18.99428175 -3.95852375  55.333333 -18.78101875 -3.76184825  55.333333 -18.16295475 -4.470929999999999  55.333333 -17.7830475 -3.647415  54.5887855 -18.6143745 -3.13500875  55.333333 -18.4011115 -2.93833325  55.333333 -19.0191755 -2.2292515  54.5887855 -19.2324385 -2.425927  53.844238 -19.4457015 -2.6226025  54.5887855 -18.37621775 -4.6676055  54.5887855 -17.9963105 -3.8440905  53.844238 -18.2095735 -4.040766  53.844238 -18.8276375 -3.33168425  55.333333 -19.160926 -4.585363249999999  55.333333 -19.77899 -3.8762815  54.5887855 -19.61234575 -3.249442  55.333333 -19.39908275 -3.0527665  55.333333 -21.015118 -2.458118  54.5887855 -20.23040975 -2.54036025  55.333333 -20.01714675 -2.34368475  55.333333 -20.397054 -3.16719975  55.333333 -17.023233 -2.000385  54.5887855 -17.236496 -2.1970605  54.5887855 -18.23446725 -2.31149375  54.5887855 -17.61640325 -3.0205755  53.844238 -18.44773025 -2.50816925  53.844238 -17.82966625 -3.217251  53.844238 -17.449759 -2.393736  55.333333 -18.02120425 -2.11481825  55.333333 -17.40314025 -2.8239  52.355143 -17.876285 -2.787087  53.0996905 -17.663022 -2.5904115  53.0996905 -18.66099325 -2.70484475  53.0996905 -18.04292925 -3.4139265  50 -22.924552 -2.075448  49.75195475 -24.09572525 -3.1523205  49.481353 -23.4424835 -2.07616375  50.2702265 -24.10999175 -2.61978175  50.540453 -25.2954315 -3.1641155  49.23330775 -24.61365675 -3.15303625  50.02218125 -25.281165 -3.69665425  49.7515795 -24.62792325 -2.6204975  48.962706 -23.960415 -2.0768795  49.50390950000001 -25.2668985 -4.229193  50.27060175 -23.57779375 -3.15160475  50.5412035 -24.2310355 -4.2277615  50.02255650000001 -24.748967 -4.228477249999999  50.54082825 -24.7632335 -3.6959385  51.082407 -25.537519 -6.380075  50.29315825 -25.40220875 -5.304634  51.08203175 -26.069717 -5.848252  50.81143 -25.41647525 -4.77209525  50.81105475 -25.94867325 -4.24027225  51.0816565 -26.601915 -5.316428999999999  50.292783 -25.93440675 -4.772810999999999  50.81180525000001 -24.88427725 -5.30391825  51.080906 -27.666311 -4.252783  50.2920325 -26.99880275 -3.709165  50.29240775 -26.46660475 -4.240988  50.8106795 -26.48087125 -3.70844925  49.50353425 -25.7990965 -3.69737  50.021806 -25.813363 -3.16483125  49.503159 -26.3312945 -3.165547  51.08128125 -27.134113 -4.784606  47.925412 -24.996278 -2.078311  48.7142855 -25.66378625 -2.621929  48.71466075000001 -25.13158825 -3.153752  49.2329325 -25.14585475 -2.62121325  48.444059 -24.4783465 -2.07759525  42.569264 -36.182215 -4.248521  42.34339850000001 -33.88423924999999 -4.77236225  41.0741155 -33.692186 -4.2336985  42.341953 -34.94817275 -3.70987425  42.5707095 -35.11828149999999 -5.311009  41.07267 -34.7561195 -3.1712105  42.572155 -34.054348 -6.373497  39.576076 -33.330024 -2.0939  40.845359 -33.52207725 -2.63256375  42.114642 -33.7141305 -3.1712275  42.11608750000001 -32.650197 -4.233715500000001  41.66002 -31.246046 -2.093934  41.887331 -32.48008824999999 -2.63258075  40.618048 -32.288035 -2.093917  55.333333 -16.366842 1.526852  55.333333 -16.818246 1.95730875  54.6655915 -16.661382 1.920912  54.6655915 -16.519267 2.80336225  53.99785 -16.671692 4.0798725  54.6655915 -16.970671 3.233819  53.99785 -16.813807 3.19742225  53.99785 -16.955922 2.314972  54.6655915 -17.112786 2.35136875  55.333333 -17.26965 2.3877655  55.333333 -16.224727 2.40930225  54.6655915 -16.377152 3.6858125  55.333333 -16.082612 3.2917525  55.333333 -16.676131 2.839759  55.333333 -18.172458 3.248679  54.6655915 -18.015594 3.21228225  54.6655915 -17.56419 2.7818255  54.6655915 -17.422075 3.66427575  53.99785 -17.265211 3.627879  53.99785 -17.407326 2.74542875  53.99785 -17.85873 3.1758855  55.333333 -17.721054 2.81822225  55.333333 -17.127535 3.27021575  52.662367 -17.545002 3.103092  53.3301085 -17.701866 3.13948875  53.3301085 -17.250462 2.709032  53.3301085 -17.108347 3.59148225  53.99785 -15.6902935 3.0158375  54.6655915 -15.3957535 2.6217775  54.6655915 -15.88645275 3.153795  54.6655915 -14.76293925 2.97221025  55.333333 -15.59191275 2.759735  55.333333 -15.1012135 2.2277175  54.6655915 -16.02856775 2.27134475  53.99785 -16.18099275 3.547855  53.99785 -16.32310775 2.66540475  55.333333 -15.73402775 1.87728475  53.3301085 -16.61764775 3.05946475  50 -25 0  50.269268 -25.666644 1.064088  50.2692425 -26.19871025 0.53204725  50.801288 -25.6666635 0.53204875  51.602576 -26.333327 1.0640975  50.5385105 -26.86535425 1.59613525  51.070556 -26.3333075 1.59613675  51.0705305 -26.86537375 1.064096  50.538485 -27.3974205 1.0640945  50.538536 -26.333288 2.128176  53.205152 -27.666654 2.128195  52.1410865 -28.19868125 2.66023275  52.673132 -27.6666345 2.66023425  51.8718185 -27.53203725 1.59614475  50.80775300000001 -28.0640645 2.1281825  51.3397985 -27.53201775 2.128184  52.141112 -27.666615 3.1922735  51.6090665 -28.19866175 3.192272  51.077021 -28.7307085 3.1922705  52.6731065 -28.19870075 2.1281935  51.339773 -28.064084 1.59614325  52.141061 -28.7307475 2.128192  51.609041 -28.730728 2.66023125  51.871844 -26.999971 2.1281855  51.339824 -26.9999515 2.66022475  52.403864 -26.9999905 1.59614625  51.07697 -29.794841 2.128189  51.0769955 -29.26277475 2.66022975  51.6090155 -29.26279425 2.1281905  50.8077275 -28.59613075 1.59614175  51.077072 -27.666576 4.256352  51.0770465 -28.19864225 3.72431125  51.609092 -27.6665955 3.72431275  50.8077785 -27.53199825 2.66022325  50.807804 -26.999932 3.192264  49.74783475 -26.18807725 1.064088  49.47856675 -25.52143325 0  49.2264015 -26.7095105 1.064088  50.01707725 -27.3867875 1.59613525  49.74780925 -26.7201435 0.53204725  48.9571335 -26.0428665 0  49.49566950000001 -27.3761545 2.128176  50.01710275000001 -26.85472125 2.128176  50.28631975 -28.58549775 2.1281825  50.28629425 -29.117564 1.59614175  49.49564400000001 -27.90822075 1.59613525  50.01705175000001 -27.91885375 1.0640945  49.49561850000001 -28.440287 1.0640945  50.28634525 -28.0534315 2.66022325  50.28637075 -27.52136525 3.192264  47.914267 -27.085733 0  48.70496825000001 -27.23094375 1.064088  48.70494275 -27.76301 0.53204725  49.226376 -27.24157675 0.53204725  48.43570025 -26.56429975 0  50.26978575 -26.19870075
[...]
<PointData  Vectors="u"> 
<DataArray  type="Float64"  Name="u"  NumberOfComponents="3" format="ascii">7.2575878708314718e+01 7.2569732029485010e+01 -1.3036250274458119e-02  7.2217802268956575e+01 7.1454079860331575e+01 -2.0560818017199547e-03  7.1646918794976017e+01 7.1225601241692871e+01 -4.1687006850866087e-01  7.2419958461981338e+01 7.2015977171117626e+01 -3.8911133988759489e-01  7.2290322068633813e+01 7.1432596244699937e+01 -8.7692925822564494e-01  7.2027987887016792e+01 7.0869939556017925e+01 -4.8174440852198702e-01  7.1488456795261683e+01 7.0591082109502679e+01 -9.1788430387727582e-01  7.0653400418433591e+01 6.9723470936716893e+01 -9.3849302113620325e-01  7.1225062590952177e+01 7.0011563380084070e+01 -4.9061873715636711e-01  7.1779027002897166e+01 7.0313609312035240e+01 -1.0983065901953495e-02  7.1816918863322030e+01 7.1831925414214723e+01 -8.2822499064785370e-04  7.1018125342867492e+01 7.1009852618206523e+01 -1.2661811583540926e-02  7.1426548279883150e+01 7.0621682375554130e+01 -7.3255357252700109e-03  7.0822833058637102e+01 7.0378937695710150e+01 -4.3779870433824342e-01  7.2406722361691337e+01 7.2019659581921857e+01 3.9215296412937672e-01  7.2025964520546296e+01 7.0875085111716302e+01 4.7644001435779743e-01  7.1638811350266451e+01 7.1219679679331236e+01 4.1584240846193565e-01  7.2293688127226460e+01 7.1424955160704258e+01 8.6028815812184178e-01  6.9314344282510461e+01 6.9305541826707312e+01 -1.4346883963592521e-02  7.0594565380584996e+01 6.9763703413473408e+01 1.0170372655772561e-03  6.9970204414412223e+01 6.9525988974148490e+01 4.3914087188099632e-01  7.0167216185293626e+01 7.0181332595525262e+01 -5.0478892536586504e-03  7.1216391468987993e+01 7.0014647726757829e+01 4.9082341844606958e-01  7.0815693924758477e+01 7.0383488342520693e+01 4.3051759917308519e-01  7.0653601317406370e+01 6.9724432889935883e+01 9.3522097526685066e-01  6.9976759266793934e+01 6.9522437653433343e+01 -4.4361643680793672e-01  7.2128182387539880e+01 7.0069402556067416e+01 -2.0989377908678613e+00  7.1889031814192833e+01 7.0237625068673026e+01 -1.0330132268612333e+00  7.1368499581203935e+01 6.9924295466000700e+01 -1.4517420814157300e+00  7.2194318130105572e+01 7.0783796795170105e+01 -1.4170549370769343e+00  7.2138873818360494e+01 7.0071175481505620e+01 2.0684798845657006e+00  7.1883388297080089e+01 7.0243278002100553e+01 1.0311531418563353e+00  7.1371442708893383e+01 6.9919187626775766e+01 1.4600263919886542e+00  7.1479703621474457e+01 7.0597871718610605e+01 9.0544555576823882e-01  7.2187483569552342e+01 7.0789427755571452e+01 1.4162269943497070e+00  7.2321911938444416e+01 6.9010406096687305e+01 -2.6708502471453532e+00  7.1565830415749204e+01 6.8818154683664474e+01 -1.9064170100642470e+00  7.2423772505911288e+01 6.9742302902786747e+01 -1.8605005193757209e+00  7.2572345347719803e+01 6.9563136737622060e+01 -1.5824873456778317e+00  7.1523857983166096e+01 6.7937924576329237e+01 -2.4695487601105808e+00  7.2411827434060740e+01 6.8864230182515414e+01 -2.4407463923264330e+00  7.1696909820023322e+01 6.8633707943694162e+01 -1.6235952795256317e+00  7.0815166371108987e+01 6.7697078311312794e+01 -1.6217659427008517e+00  7.2289572854270403e+01 6.8107942940816798e+01 -3.4499429218844120e+00  7.2075328390358962e+01 6.9313082623728349e+01 -2.7633877406301188e+00  7.2045325021084992e+01 6.8506557030702908e+01 -3.5488587461981744e+00  7.2226072253248105e+01 6.8239947665504189e+01 -3.5043918957623239e+00  7.1413069626203281e+01 6.8094392096298648e+01 -2.6971748078400899e+00  7.1189927801404394e+01 6.8424073829009089e+01 -2.7939971761250839e+00  7.1125050048965264e+01 6.7586680897866671e+01 -3.5774371617863152e+00  7.0227988176848328e+01 6.6667877014701816e+01 -3.5633820721694693e+00  7.0530648679570390e+01 6.7171252674590988e+01 -2.7006219369013245e+00  7.1266653339600367e+01 6.9185321629678967e+01 -2.1450574341689688e+00  7.0396918623057616e+01 6.8274850759244941e+01 -2.1711329608218133e+00  7.0688166741184133e+01 6.7898534263335065e+01 -1.8884382796215868e+00  7.0284565030230311e+01 6.7498255428824237e+01 -2.8242087507684279e+00  6.8672879376074292e+01 6.6436182751550717e+01 -2.1161980022823808e+00  6.9800751485572590e+01 6.6993452478322581e+01 -1.9198900505318257e+00  6.9420353006734771e+01 6.6592767451718203e+01 -2.7734964992775262e+00  6.9482671591717732e+01 6.7381283781162523e+01 -2.1859101524197095e+00  7.1991528807696938e+01 6.6727957762830115e+01 -5.2127901958583100e+00  7.2148317398417689e+01 6.7414455972252341e+01 -4.4183555779996091e+00  7.1311025946064504e+01 6.7299317017908038e+01 -3.5491731938185986e+00  7.1993574498870245e+01 6.7639682520713293e+01 -4.3567885561639814e+00  7.1075213960310734e+01 6.6723737760960489e+01 -4.3542148443672160e+00  7.1858247127030111e+01 7.0211180418901137e+01 8.2243628550832306e-03  7.2312726122355429e+01 6.8949554920752078e+01 -2.2493073943242226e+00  7.1696392242443935e+01 6.8586696380228560e+01 -1.1333279244441214e+00  7.2566410516918680e+01 6.9576325940986862e+01 -1.0543433609879131e+00  3.0071082897047891e-01 2.1182029138780817e+02 -1.7676423461111630e+00  1.7952727794313927e+00 1.9282725208986596e+02 -1.3659349317567449e+01  -1.0714889931181029e+00 1.9395658263615550e+02 -1.9205650318080061e-01  -1.4078600615212562e+00 2.0984801182809755e+02 -1.3914345049294495e+01  -1.5069034750442362e-01 2.0508318738677144e+02 -1.0708137507781869e+01  7.7509400877533297e-01 1.8479683143587556e+02 -9.7275674083425141e+00  1.7658038060109580e+00 1.9354032123594277e+02 -1.6666403019226664e+01  -5.1873002656507461e-01 1.9259160272646474e+02 -3.9898740320984230e+00  6.6635695794754923e-01 1.8428746596877630e+02 -3.3293907719507998e-01  1.1974274343751041e+00 1.8574499486565972e+02 -1.9506144155309460e+01  -4.4598047347822289e-01 1.9424096037599571e+02 -9.6675787160858917e+00  -1.2664484482727487e-01 1.8619379976134644e+02 -1.1151211751534271e+01  1.0259237489591122e+00 1.8522449026759031e+02 -1.5379792536452072e+01  2.8697192205963207e-01 1.8577672823727545e+02 -5.5366811287176265e+00  -4.9436811173958407e-02 1.7419289879806647e+02 -1.8843225099207061e+01  9.2482497123414742e-01 1.7345387613132255e+02 -1.4084995970494349e+01  9.1809651755962696e-01 1.7930629426548728e+02 -1.9068078762690387e+01  7.2699092099570350e-01 1.7922458413510458e+02 -1.0052399017493377e+01  9.6033563718703063e-01 1.7792960952872522e+02 -4.9690162848260782e+00  1.2990364339023206e+00 1.7869598598660153e+02 -1.4147134326271976e+01  1.5834915161985268e+00 1.7239580506386127e+02 -9.3188611436927555e+00  6.5862312092432387e-02 1.7962680915951574e+02 -1.4876636175151564e+01  -2.0249052161542394e-01 2.0669235320754359e+02 -2.3921448041022359e+01  5.0339735788670870e-01 1.9194713641661670e+02 -1.0340461810590616e+01  2.4290629248860034e+00 1.9435622862772925e+02 -1.9705982991430112e+01  -1.4413834876625309e+00 1.9097513752080692e+02 -6.9236499488932202e+00  1.0128288496404294e+00 1.8469269559604550e+02 -1.3845686140401915e+01  7.0681622966260804e-01 1.8283157493617060e+02 -4.4862450898507653e+00  1.0459664928194008e+00 1.8284449656461791e+02 -8.7468631455996171e+00  8.7834637073645427e-01 2.0961697973231171e+02 -6.5440860449245104e+00  2.2201066440897606e+00 1.6906883624409460e+02 -5.1319436330428536e-01  1.6434076874148409e+00 1.7542524794608204e+02 -4.3767415109933125e+00  1.3634053366902861e+00 1.7742713226593830e+02 -8.9948006572638395e+00  1.3683726455579899e+00 1.7602367766578053e+02 -3.7935767283032396e-01  1.9983956561160074e+00 1.7081774765659938e+02 -4.7435937617058936e+00  -3.2201115796165414e-01 1.2414479265181586e+02 2.3574390664204753e+01  6.0524844813116987e+00 1.3074444512127499e+02 1.9593254388200979e+01  1.9400316671686973e-01 1.3439758834954372e+02 2.0595944642480905e+01  -9.7301440466234845e-02 1.3583038840887068e+02 2.6576456561621644e+01  -1.1403768004373860e-01 1.4480244248984940e+02 2.5406285629824634e+01  4.0586969166021962e+00 1.3976764625164725e+02 1.9216215305487420e+01  -1.4647515502340341e-01 1.4216269133547965e+02 1.8737611056831625e+01  -2.4744613658447803e-01 1.3877131924525716e+02 1.2820242393125444e+01  4.0296269791386683e+00 1.3653109276313251e+02 1.3467370085768719e+01  8.8868951151472633e+00 1.3526685263835608e+02 1.4895288206482581e+01  6.5212819024429587e+00 1.3245156164461778e+02 2.5711403338456101e+01  4.1495130358791270e+00 1.4222112706470202e+02 2.5817952153584223e+01  9.6406883722977668e+00 1.4046970837222707e+02 2.7145687087221379e+01  9.1420711163260471e+00 1.3798557984378581e+02 2.0391580141342953e+01  -7.6519737849693625e-01 1.2329561558598678e+02 1.8006532995413441e+01  -4.3767676200489364e-01 1.2197071828245755e+02 1.3015684345091449e+01  5.9347539081655434e+00 1.2894451196323593e+02 1.4589481124769225e+01  -1.3804229440354215e-01 1.3169708714069048e+02 1.4580591211818620e+01  -6.7127576921268950e-01 1.1720069191983791e+02 4.7790763679032988e+00  5.9113870224386327e+00 1.2592917630375068e+02 9.6604129269956402e+00  1.8908247820800475e-01 1.2871597187810633e+02 9.7706824658613360e+00  -7.2772981895989020e-02 1.2027003689462568e+02 8.8119342385360095e+00  -4.7629693357819379e-02 1.5942903842763576e+02 1.7443580050904391e+01  1.8343377608452942e+00 1.5695558813449145e+02 1.8611834632272704e+01  2.7075921278820498e+00 1.4655815629145417e+02 1.6152102361664067e+01  2.7501880723078282e+00 1.5007096586505003e+02 2.2955505964923450e+01  5.9545330130562553e+00 1.4521654549300871e+02 1.7843174512620077e+01  6.0762716053198336e+00 1.4839516340439508e+02 2.4663559653048878e+01  3.9691947078882319e+00 1.5497827190595382e+02 2.0073623853132460e+01  1.3062026643037183e-01 1.4908621534022885e+02 1.5367207830335929e+01  -1.3737099874018084e-02 1.5269941492402626e+02 2.2413757217973806e+01  7.5014245565960280e+00 1.5368474809220120e+02 2.5417577638851476e+01  6.1160056566202892e+00 1.5393784934278733e+02 2.2348424300226220e+01  9.2626232433774014e+00 1.4438747741357579e+02 2.0118459896151801e+01  9.5198735914566122e+00 1.4749029672008820e+02 2.6889081188995583e+01  8.1384426523089616e+01 1.5764644480771648e+02 5.5185903067693438e+01  8.7698814460868491e+01 9.8038243628885127e+01 1.0866102027969482e+01  1.1952205285251372e+02 1.0977433051363286e+02 1.3875868918234724e+01  8.2714830161896060e+01 1.0488295644394452e+02 1.2499195935377404e+01  7.5162908682845682e+01 9.1633809901296559e+01 5.8683282829939660e+00  8.7427449486886673e+01 9.2242789361798330e+01 8.9537272785877260e+00  8.0058957138193676e+01 8.8924882242453705e+01 6.8470372913850905e+00  8.4534384204164510e+01 9.8865369989662042e+01 1.0559613837500725e+01  9.7353851210970902e+01 9.5703441555136365e+01 7.6033801217442063e+00  8.3213653097739169e+01 8.6375402739443217e+01 7.6113654523263037e+00  8.3660632708831841e+01 1.0850230664813041e+02 1.6914270447836152e+01  7.8349159710336920e+01 9.4562018085898259e+01 9.9762952778472584e+00  8.1890824518596077e+01 9.0501450753367692e+01 8.6474380749704665e+00  7.6914498214022629e+01 9.3450243366209449e+01 7.9645807085168396e+00  8.5556471794110877e+01 8.1241734925035104e+01 4.1871270493702593e+00  8.2823655499430245e+01 8.3875734879738161e+01 6.1974633649750546e+00  8.3820518389652648e+01 8.1074455747461201e+01 2.8516865747959321e+00  7.9257482155390647e+01 8.5047384624386552e+01 4.1830384905773430e+00  7.7914243569522029e+01 8.4423360205315561e+01 2.6914938825668813e+00  8.1955426976252383e+01 8.0183511615584308e+01 1.4717167003710561e+00  8.1220162225063959e+01 8.3686040102232013e+01 5.0607020060226890e+00  8.1031225665034682e+01 8.6301140048994469e+01 5.8149676541842981e+00  7.8542607042432081e+01 7.8659423065717206e+01 -2.4679283612417852e-01  7.8226866999590314e+01 8.1585141033187242e+01 2.4805765689681061e+00  7.9497570425600429e+01 8.2131005012878276e+01 3.3146247300230014e+00  7.6189001217572780e+01 8.2799066769387650e+01 1.6133894555254205e+00  8.1824162180016998e+01 8.5306004655633302e+01 5.9004657606970197e+00  7.8649015389699002e+01 8.7661290918386101e+01 4.8887147802418278e+00  7.9918802629886983e+01 8.4196583829043604e+01 4.4671324766066647e+00  8.0272587291290520e+01 7.9771096330049517e+01 5.8755737885494042e-01  8.8185861453932233e+01 8.4247291773189843e+01 3.9740066323276388e+00  8.4100278930469486e+01 8.5438199917105095e+01 5.0851807405890881e+00  8.5675527413906877e+01 8.6688239842881885e+01 6.8073302978477050e+00  8.5361525490483800e+01 9.0599585011789316e+01 6.8020349801286333e+00  9.1800023919067115e+01 8.7878335737260954e+01 4.0033079879445248e+00  6.8208977844649326e+01 6.3131452034295492e+01 5.0106888849817706e+00  7.0921621358871704e+01 6.3757617735865942e+01 7.0643589930588373e+00  7.0022762819404207e+01 6.2728556282221980e+01 7.1396449762184258e+00  6.9208367695732917e+01 6.3812754033155194e+01 5.1762386178509772e+00  6.9893275596760986e+01 6.3061653241359849e+01 6.8111418891510880e+00  6.8350598723557709e+01 6.2820995586263209e+01 5.1765708738592133e+00  7.1640426285951733e+01 6.2884297591195470e+01 8.7548926044431568e+00  6.8296440927743475e+01 6.2693327859990951e+01 5.5238053158377083e+00  6.9243022340096033e+01 6.3625788736550881e+01 5.4089263020710190e+00  7.0200007939996993e+01 6.4544501220171554e+01 5.3032776912346922e+00  7.1955529109324488e+01 6.4505354716383451e+01 7.3087529356260443e+00  7.2062233197887267e+01 6.6238972670635690e+01 5.7824300301184648e+00  7.1120793199803160e+01 6.5387664608920772e+01 5.5094688439171353e+00  7.0139859912555082e+01 6.4443609026643159e+01 5.6813649275996116e+00  -2.3445322645221325e-02 1.6764664526484327e+02 -1.4956215311172413e+01  -3.5474218434745956e-02 1.6176443971051719e+02 -1.7649707122690138e+01  1.1915529771692828e+00 1.6367355938729202e+02 -1.7996389025957580e+01  1.5252128244379588e+00 1.6217767490923802e+02 -2.6019808501520501e+01  5.0524961843865155e+00 1.5500834605634194e+02 -3.5676644308611110e+01  2.1757395196095821e+00 1.5553822224777323e+02 -2.7330454134803841e+01  3.8133019592672346e+00 1.5805387244579444e+02 -2.8604148593785027e+01  2.9296474533648018e+00 1.6007979048167982e+02 -2.0930407737067775e+01  1.7645275759407300e+00 1.5767846282837831e+02 -2.0149012473944477e+01  -3.5822918874952842e-02 1.5563777633006148e+02 -1.9649484214733960e+01  5.2450339780597205e-03 1.6658593826336678e+02 -2.3613922250369328e+01  2.0168805980332580e+00 1.5931832184897610e+02 -3.3718720316839899e+01  -6.0142513336762328e-02 1.6419251443972476e+02 -3.1956548262389397e+01  -3.1029892217487726e-03 1.6009330196550582e+02 -2.5346472314356340e+01  2.2961979499135813e-02 1.4290415481740797e+02 -2.1318506366486083e+01  3.2941826079057348e+00 1.4513657158659092e+02 -2.2334603675336187e+01  2.3934447260464733e+00 1.5148578049098845e+02 -2.1579524392649226e+01  2.9740162734207209e+00 1.4871915361909396e+02 -2.7858666896333567e+01  5.3156547330694268e+00 1.5159090982517586e+02 -2.9521076599260180e+01  4.1027123630395117e+00 1.5406223718113603e+02 -2.2730999461355253e+01  5.6930534416256346e+00 1.4787717446430554e+02 -2.3843445116658636e+01  6.5648603470870828e-02 1.4944172945516431e+02 -2.0941524399187301e+01  -2.7689909741903381e-02 1.5342655200658632e+02 -2.6528260157471472e+01  7.2362035047837967e+00 1.5480095731331278e+02 -2.8157408060803672e+01  7.3855566570409321e+00 1.5113273562303326e+02 -2.5859117918046437e+01  5.0802511327605364e+00 1.5690757654297244e+02 -2.4154512871208492e+01  6.7402655521174673e+00 1.5487440833657547e+02 -3.1426473747547760e+01  2.2011202848395057e+00 1.7079237298823909e+02 -3.2049503063944393e+01  8.4227026407043060e-01 1.7522969143881278e+02 -2.9239224928136373e+01  1.3234027918203528e+00 1.6724916423938453e+02 -3.1934669296867401e+01  1.2203489699986978e+00 1.8138170927281593e+02 -3.5589104573099895e+01  -3.5001272609713439e-02 1.7231689104900255e+02 -2.9178352878183748e+01  9.9121513526378949e-02 1.7976087076086824e+02 -2.5567439315511500e+01  9.2650978512477122e-01 1.6937268660942092e+02 -2.3087806985233435e+01  3.3369524689486325e+00 1.6295068132366794e+02 -3.4388474337314427e+01  2.4669108371242037e+00 1.6534849871257165e+02 -2.6156300064733905e+01  -9.1800058108977900e-02 1.7352755611246243e+02 -1.9973941211878575e+01  4.4191434719773826e+00 1.6176394184754088e+02 -2.9376489468905930e+01  8.1006139729632139e+01 1.2741557424784523e+02 -2.3108539313867780e-02  7.5304607587994454e+01 9.6998607818595886e+01 -4.9928931943412289e+00  7.4553206689568526e+01 9.0704629026946165e+01 -1.1001709006627460e+00  6.8388928773475186e+01 9.8083437298678149e+01 -2.8901186426371170e+00  6.2997832684461379e+01 8.7396079104797835e+01 -2.5483844683693507e-01  7.3004257648509721e+01 8.5131621737794177e+01 -1.2829647457789908e+00  6.8585253606921881e+01 8.7527255334278493e+01 -9.5781908092289914e-01  6.8776940125026883e+01 8.4942999297113545e+01 -2.9565516131629549e-01  7.2529641585242970e+01 8.2342481899478258e+01 -4.5436755691714986e-01  7.3290392402756552e+01 8.7194283315501806e+01 -2.2794996900559088e+00  6.2847721795958513e+01 7.1542844781717676e+01 8.0047966112206161e+00  7.2254989839627186e+01 7.6077435094434904e+01 4.1075741538790425e+00  6.8005957464571523e+01 7.4702755037948819e+01 6.4763155872999540e+00  6.7143437019044924e+01 7.8374202952822344e+01 2.2575766634459287e+00  7.3842851698010691e+01 7.9037576917135908e+01 2.5410859056901064e-01  7.0938004552108112e+01 7.9798448718257205e+01 1.0598006113967493e+00  7.2296279444548830e+01 7.6895042989669037e+01 4.6262416077560387e+00  7.4838132797565464e+01 7.7237447835519689e+01 2.6846031740524405e+00  7.6351395789856753e+01 7.6985540526545819e+01 8.1692660336313760e-01  6.8204726260525320e+01 7.3948702957503158e+01 5.4460874297457327e+00  7.0938038917641620e+01 7.8281324071925511e+01 1.0852285894773164e+00  7.1429765519320682e+01 7.4821197061677864e+01 3.1822585383973485e+00  7.4086119647835574e+01 7.6115795743053440e+01 2.1822525325940632e+00  6.6770445074285902e+01 8.0376742063845171e+01 2.4464849547413219e+00  7.1371627265779068e+01 8.1797298192646437e+01 7.9541731322178999e-01  6.1845057522355731e+01 7.8503633275279043e+01 3.6169493694684896e+00  7.4779283621366332e+01 7.5525755807663401e+01 5.2322378251677226e-01  7.5561361570151675e+01 7.6362595607040419e+01 7.5459651554017282e-01  7.3677753446071662e+01 7.5576922327038488e+01 1.7959382434099183e+00  7.3308565989867887e+01 7.7541354289904504e+01 4.8134580147323408e-01  7.8576838909083193e+01 7.8672833850179458e+01 1.9847278465267695e-01  7.7446677768662269e+01 7.8070528451230572e+01 5.6019124347379456e-01  7.5689212073025786e+01 7.8013797716007673e+01 2.3797527496436262e+00  7.4217365192521981e+01 8.0092150271123685e+01 -1.4011818743541560e-01  7.5174532826337511e+01 8.1835463172792942e+01 -6.8064132322776028e-01  7.7718126061562614e+01 8.8336196498918895e+01 -1.9549973879343587e+00  8.8187739291721513e+01 9.2361096130178822e+01 -6.6396063686769591e-02  7.9088238977442799e+01 8.4589706779373302e+01 -1.4902665755959263e+00  7.5205185554596696e+01 8.1981425564834922e+01 -1.2257573352784732e+00  7.6733614714823872e+01 8.6351004579231983e+01 -6.2381775436013176e-01  8.3512659666630398e+01 8.6192967899540278e+01 -6.2251805817659100e-03  7.7388188598345380e+01 8.1185692821560167e+01 -2.1135324369635038e+00  7.6109881261873383e+01 8.4136701275126157e+01 -2.0659859473268010e+00  7.5243280548799817e+01 7.7722606781233566e+01 -4.6890049791956256e-01  7.4876501224979435e+01 7.6964923374765391e+01 -2.7786934362830440e-01  7.6621321648137055e+01 7.9831417716105392e+01 -1.3324049236056250e+00  7.4756836552825106e+01 8.0198178421453648e+01 -5.7922091840507384e-01  7.5801970462348720e+01 7.8502749148669352e+01 -8.2594796642387636e-01  7.6075709080719619e+01 7.9241041970619690e+01 -9.8905119347820525e-01  7.6916831421894130e+01 7.9996331337269595e+01 -1.4485900932796112e+00  7.9631752883226056e+01 7.9521119929203834e+01 8.6018437384307884e-03  7.8660321740972876e+01 8.0961521233022765e+01 -1.4302970620097188e+00  7.7663644488869210e+01 7.9593430350817528e+01 -6.8939521506368284e-01  7.7524292294588946e+01 8.2194452979885824e+01 -5.9169900535113695e-01  8.0707594383285610e+01 8.1570186700584912e+01 9.6958207996108211e-03  7.4418389757379671e+01 9.1058684639787785