<?xml version="1.0"?>
<VTKFile type="UnstructuredGrid"  version="0.1"  >
<UnstructuredGrid>
<Piece  NumberOfPoints="5778" NumberOfCells="26789">
<Points>
<DataArray  type="Float64"  NumberOfComponents="3"  format="ascii">50.541777 11.590053 -16.8681695  51.07306575 11.59046 -16.336474  51.07306575 11.06899475 -16.85793925  51.875243 12.1786655 -16.94609125  51.6043545 10.5479365 -16.847709  51.6043545 11.06940175 -16.32624375  52.40653175 11.65760725 -16.935861  51.6043545 11.590867 -15.8047785  50.80217725 10.48119625 -15.7166265  55.333333 4.369342 -13.450236  54.6666755 5.40297375 -13.9008685  54.6666755 5.39279375 -13.01557025  55.333333 5.046628249999999 -13.1484675  55.333333 5.723914499999999 -12.846699  54.6666755 6.08026 -13.5991  54.6666755 6.07008 -12.71380175  54.000018 6.4162455 -12.5809045  54.000018 6.426425500000001 -13.46620275  54.000018 6.436605500000001 -14.351501  55.333333 5.05680825 -14.03376575  55.333333 5.734094499999999 -13.73199725  55.333333 5.7442745 -14.6172955  54.6666755 6.09044 -14.48439825  55.333333 7.078487 -12.243162  54.6666755 6.757546250000001 -13.2973315  55.333333 7.088667 -13.12846025  55.333333 6.411380749999999 -13.43022875  54.6666755 6.767726250000001 -14.18262975  55.333333 6.421560749999999 -14.315527  55.333333 7.098847 -14.0137585  54.6666755 6.747366250000001 -12.41203325  55.333333 6.401200749999999 -12.5449305  55.333333 7.119207 -15.784355  54.6666755 6.777906250000001 -15.067928  55.333333 7.109027 -14.89905675  55.333333 6.431740749999999 -15.20082525  52.666703 5.754004 -12.918647  52.666695 6.39448425 -12.548677  53.3333605 6.77170075 -13.1210345  52.00002725 6.919117 -13.33537125  51.3333515 8.08423 -13.7520955  52.00001924999999 7.559597249999999 -12.96540125  52.66668475 7.93681375 -13.53775875  54.000018 7.7893975 -13.323422  53.3333525 7.412181 -12.7510645  52.666687 7.0349645 -12.178707  52.00002725 6.084198 -12.7503115  51.3333515 7.249311 -13.16703575  52.00001924999999 6.72467825 -12.3803415  51.3333515 6.414391999999999 -12.581976  55.333333 10.641026 -17.025641  55.333333 9.76057125 -16.7153195  55.333333 10.43696725 -16.20128  53.99999975 9.858859499999999 -16.112721  52.66666650000001 9.076692999999999 -15.199801  53.99999975 8.978404749999999 -15.8023995  53.99999975 9.65480075 -15.28836  55.333333 10.2329085 -15.376919  55.333333 9.5565125 -15.8909585  55.333333 8.8801165 -16.404998  53.99999975 8.774346 -14.9780385  53.99999975 9.450741999999998 -14.463999  55.333333 8.471999 -14.756276  55.333333 8.67605775 -15.580637  55.333333 9.352453749999999 -15.0665975  55.333333 9.148395000000001 -14.2422365  55.333333 7.99966175 -16.0946765  55.333333 7.795603 -15.2703155  53.99999975 8.097949999999999 -15.492078  54.802177 10.96853025 -16.200873  53.46884375 10.18636375 -15.287953  54.271021 11.2960345 -15.376105  54.802177 10.7644715 -15.376512  54.802177 11.172589 -17.025234  53.46884375 10.3904225 -16.112314  54.271021 11.50009325 -16.200466  54.271021 11.704152 -17.024827  52.93768775 10.9219855 -16.111907  52.1355105 10.33378 -15.50228975  52.1355105 9.812314749999999 -16.023755  51.33333325 9.7455745 -14.8926725  53.3333605 6.08512475 -12.74977575  54.000018 7.1028215 -12.95216325  53.3333525 6.725605 -12.37980575  53.3333445 7.36608525 -12.00983575  54.6666755 7.433942249999999 -12.783292  54.000018 7.1130015 -13.8374615  54.6666755 7.444122249999999 -13.66859025  55.333333 7.775243 -13.499719  55.333333 7.785423 -14.38501725  54.6666755 8.13069825 -14.039849  55.333333 8.461819 -13.87097775  54.6666755 8.807094249999999 -13.5258095  54.6666755 7.45430225 -14.5538885  53.3333605 6.09530475 -13.635074  52.66668475 7.415348499999999 -14.059224  53.33334225 8.433045249999999 -14.2616115  52.00000900000001 8.580461499999998 -14.47594825  55.333333 11.17307725 -16.49358975  53.33334225 7.75664925 -14.775651  50 -12.498932 -12.501068  50 -11.2199275 -12.523315  50.66665925 -11.453014 -12.2356135  50 -11.740888 -12.0023545  50 -10.982844 -11.503641  50 -10.4618835 -12.0246015  50.66665925 -10.69497 -11.7369  51.3333185 -10.407096 -11.970159  50.66665925 -10.1740095 -12.2578605  50 -9.940923 -12.545562  50 -11.9779715 -13.0220285  50 -11.457011 -13.542989  50 -10.698967 -13.0442755  50.66665925 -10.9320535 -12.756574  50 -10.41509 -14.58491  50.66665925 -9.8901325 -13.798495  50 -10.1780065 -13.565236  50.66665925 -10.411093 -13.2775345  50.66665925 -9.653048999999999 -12.778821  51.3333185 -9.8861355 -12.4911195  51.3333185 -9.365175000000001 -13.01208  50 -10.9360505 -14.0639495  50 -9.466756 -10.506214  50.66665925 -9.178882 -10.739473  50.66665925 -9.4159655 -11.759147  50.66665925 -9.936926 -11.2381865  51.3333185 -9.1280915 -11.992406  51.3333185 -9.649051999999999 -11.4714455  51.3333185 -8.891007999999999 -10.972732  50 -9.703839500000001 -11.525888  50 -10.2248 -11.0049275  52.666637 -8.31526 -11.43925  51.99997775 -8.603134000000001 -11.205991  51.99997775 -8.840217500000001 -12.225665  51.99997775 -9.361177999999999 -11.7047045  50.66660425 -12.0022775 -11.7407965  51.3332085 -11.505623 -10.980525  51.3332635 -10.9563595 -11.475342  50.66660425 -11.2442335 -11.242083  50.66660425 -9.7281455 -10.244656  51.3332635 -10.1983155 -10.9766285  51.3332085 -9.989535 -9.983098  51.3332635 -9.4402715 -10.477915  50.66660425 -10.4861895 -10.7433695  51.3332085 -10.747579 -10.4818115  52.666417 -10.512314 -9.459982  51.99986775000001 -9.701661 -10.216357  52.666472 -9.9630505 -9.954799  51.99986775000001 -10.459705 -10.7150705  51.99992275 -9.910441499999999 -11.2098875  52.666527 -9.413786999999999 -10.449616  51.99992275 -9.152397499999999 -10.711174  51.99981275 -10.2509245 -9.721540000000001  51.99981275 -11.0089685 -10.2202535  52.66658200000001 -8.864523500000001 -10.944433  48.962344 -14.88991 -19.147746  47.64947875 -14.82313925 -18.527382  48.1803365 -14.82383975 -17.99582375  48.1802375 -14.2916235 -18.528139  47.398131 -13.693337 -17.908532  46.86737225 -14.22485275 -17.907775  47.39823 -14.22555325 -17.37621675  47.398329 -14.7577695 -16.8439015  46.86747124999999 -14.757069 -17.37545975  46.3366135 -14.7563685 -17.907018  48.43158525 -15.42142575 -19.146989  47.9008265 -15.9529415 -19.146232  48.962443 -15.42212625 -18.61543075  48.962542 -15.9543425 -18.0831155  48.43168425 -15.953642 -18.61467375  45.833918 -12.496764 -16.669318  46.08526575 -13.62656625 -17.288168  46.6161235 -13.62726675 -16.75660975  46.61602449999999 -13.0950505 -17.288925  55.333333 -12.769231 -14.897436  53.99999975 -12.01922025 -13.993769  53.99999975 -12.70165625 -14.298344  55.333333 -12.62752325 -14.0470735  55.333333 -12.4858155 -13.196711  53.99999975 -11.8775125 -13.1434065  53.99999975 -12.5599485 -13.4479815  52.66666650000001 -12.6340815 -13.699252  52.66666650000001 -11.9516455 -13.394677  52.66666650000001 -11.2692095 -13.090102  55.333333 -12.086795 -14.592861  55.333333 -11.94508725 -13.7424985  53.99999975 -11.33678425 -13.689194  55.333333 -11.404359 -14.288286  55.333333 -10.039487 -13.679136  53.99999975 -10.65434825 -13.384619  55.333333 -10.58021525 -13.1333485  55.333333 -11.26265125 -13.4379235  55.333333 -11.8033795 -12.892136  55.333333 -11.1209435 -12.587561  53.99999975 -11.1950765 -12.8388315  55.333333 -10.721923 -13.983711  52.66666650000001 -12.350666 -11.998527  52.66666650000001 -11.80993775 -12.5443145  52.66666650000001 -12.49237375 -12.8488895  53.99999975 -12.41824075 -12.597619  53.99999975 -11.73580475 -12.293044  55.333333 -12.34410775 -12.3463485  55.333333 -11.66167175 -12.0417735  51.33333325 -11.88407075 -12.795585  51.33333325 -12.56650675 -13.10016  51.33333325 -12.424799 -12.2497975  37.464839 -16.663609 -20.871552  36.422159 -16.66432 -21.913521  37.4678485 -15.6254355 -21.906716  37.901211 -17.89983 -23.1989595  37.470858 -14.587262 -22.94188  42.58968 -17.010565 -23.399754  40.011419 -16.861986 -22.126595  40.01128199999999 -15.7963155 -23.192403  41.0742075 -15.797863 -22.127929  41.5268915 -18.074688 -23.39842  40.463966 -18.0731405 -24.462894  41.5267545 -17.0090175 -24.464228  40.463829 -17.00747 -25.528702  40.464103 -19.138811 -23.397086  39.558735 -14.585161 -20.856104  53.99999975 -12.18069575 -14.8193045  52.66666650000001 -11.430685 -13.9156375  52.66666650000001 -12.113121 -14.2202125  52.66666650000001 -11.5921605 -14.741173  53.99999975 -11.49825975 -14.5147295  53.99999975 -10.13338775 -13.9055795  53.99999975 -10.81582375 -14.2101545  52.66666650000001 -10.748249 -13.6110625  52.66666650000001 -10.9097245 -14.436598  52.66666650000001 -10.2272885 -14.132023  51.33333325 -11.36311025 -13.3165455  51.33333325 -12.04554625 -13.6211205  51.33333325 -10.84214975 -13.837506  51.33333325 -11.52458575 -14.142081  51.33333325 -10.32118925 -14.3584665  51.33333325 -11.00362525 -14.6630415  54.8024415 -13.3007035 -14.896855  53.46910825000001 -12.71216825 -14.8187235  53.46910825000001 -13.23312875 -14.297763  54.27155 -13.832176 -14.896274  52.135775 -12.6445935 -14.2196315  52.135775 -13.165554 -13.698671  51.6048835 -12.6551055 -14.740011  50.80244175 -12.57701875 -13.6205395  50.80244175 -12.05605825 -14.1415  50.80244175 -11.53509775 -14.6624605  52.135775 -12.123633 -14.740592  52.40732525 -13.77511325 -14.8175615  52.93821675 -13.24364075 -14.8181425  38.964471 -17.90121 -22.134319  40.0098485 -17.900698 -21.0894535  39.555594 -16.662585 -18.781821  38.5102165 -16.663097 -19.8266865  39.5571645 -15.623873 -19.8189625  38.511787 -15.624385 -20.863828  38.9674805 -16.8630365 -23.169483  38.5147965 -14.5862115 -21.898992  54.8024415 -13.15899575 -14.0464925  38.962949 -18.938443 -21.098608  38.5086945 -17.70033 -18.7909755  37.461795 -18.738075 -18.80013  37.463317 -17.700842 -19.835841  49.4812175 -10.9342045 -14.584578  50.27157075 -11.53445175 -15.1939775  50.27157075 -12.05541225 -14.673017  50.5431415 -13.6957345 -14.761124  49.75278825 -12.57452675 -14.672685  50.5431415 -13.174774 -15.2820845  50.5431415 -12.6538135 -15.803045  49.75278825 -12.05356625 -15.1936455  48.962435 -11.453319 -14.584
[...]
<PointData  Vectors="u"> 
<DataArray  type="Float64"  Name="u"  NumberOfComponents="3" format="ascii">1.0274245166785870e+02 -5.7510206318561401e+01 9.1062928844280378e+01  9.5757351058110757e+01 -6.2592072077244076e+01 9.5110595083295522e+01  9.4055449922908636e+01 -5.8738742991645623e+01 9.6822418479341650e+01  9.4028535067586773e+01 -4.7145667380336960e+01 7.8843904960079215e+01  8.4956938539451485e+01 -5.8554527722843993e+01 1.0275346575642006e+02  8.7089884262416632e+01 -6.2251753753489027e+01 9.9793697100612818e+01  8.3920057623098558e+01 -4.3941230396548754e+01 8.0776469256557178e+01  8.6325747523725468e+01 -6.8033447028829485e+01 9.8516523416402933e+01  9.7835754448786659e+01 -8.1970631032844508e+01 1.2199163062985220e+02  -1.3916854473366666e-01 -6.5767524122543080e+01 1.9332125101503726e+02  3.9415862577578890e-02 -6.7484242986735410e+01 1.7026237053839171e+02  -7.5332948266891195e+00 -7.9068653652061641e+01 1.6980995508879582e+02  -4.1029097828902179e+00 -7.7522842686158995e+01 1.6968232133157201e+02  -3.6144219586828985e+00 -7.3955722591255437e+01 1.6519536402385043e+02  4.7738277591129852e-01 -7.2777110189679419e+01 1.6636417982169530e+02  -7.1478850807234853e+00 -7.4947514959274045e+01 1.7086833460037306e+02  -6.4435852700211871e-01 -8.9185960003643359e+01 1.7633466431680412e+02  1.2188231983429145e+00 -7.7790105869679365e+01 1.6702329011705129e+02  4.5266697202596822e+00 -6.9468225082111886e+01 1.5866283957326212e+02  4.4280288601959494e-01 -6.3741235141697409e+01 1.7354999743243732e+02  1.9397964733472761e-01 -7.0137740233227760e+01 1.6766165017104828e+02  2.7395084550827755e-02 -6.1101833754588348e+01 1.6094661736126199e+02  2.0469895651765300e+00 -6.4822721991895719e+01 1.5948493422652427e+02  3.3218920105044430e-01 -1.0061315741037647e+02 1.7194860356845663e+02  2.2209708641161810e-01 -7.9452731020854642e+01 1.6331913072758121e+02  -1.6614868523390436e-01 -8.2364567406807467e+01 1.6150708239975845e+02  -2.8316503738550269e-01 -7.5598751885617006e+01 1.6324892781478971e+02  2.6223018428753067e+00 -7.1378093661263350e+01 1.5502630500542006e+02  -2.8746581949291772e-01 -6.7786538088409145e+01 1.5706671326351704e+02  -9.7720951235973685e-02 -7.3962843481354156e+01 1.5210175268064526e+02  5.4478443969457913e-01 -8.8287570878029499e+01 1.7912669323530670e+02  -5.4021084066047269e+00 -6.9932788268579117e+01 1.6899213470252300e+02  -9.3390697023484659e-01 -5.3427483204020689e+01 1.3509452375367911e+02  3.8097031071423189e+00 -6.2000145574490205e+01 1.4702090059386632e+02  4.1516059479795886e-01 -6.4473141926139434e+01 1.4486270806646218e+02  1.2051856957438813e-01 -5.8926355094152036e+01 1.4910987241940154e+02  -1.9895310450813147e-02 -8.5790486342566496e+01 1.8863237183573804e+02  6.0506235398249376e-02 -9.9407028697732471e+01 1.6115841564229956e+02  4.9674031290179732e+00 -8.7932021981626534e+01 1.6545701710004917e+02  3.7799315875390826e+00 -8.9398816661552701e+01 1.6871615978980074e+02  1.2120077346001295e+01 -9.8226703513228614e+01 1.6092415282677172e+02  4.5750690273721339e+00 -9.6932577645069259e+01 1.6476671629589330e+02  9.9710001651506115e+00 -9.1169436482333083e+01 1.5453238276857803e+02  5.5399132061355516e+00 -8.7072473548649469e+01 1.5192177937410361e+02  4.7294077977501985e+00 -9.3088248298565873e+01 1.5997500751184890e+02  -9.1722194227605705e-02 -9.5179675062881259e+01 1.6317141147937153e+02  -4.7392620236386190e-01 -9.6972768062180805e+01 1.8630323951775836e+02  2.8122399063196437e+00 -9.5643044333572817e+01 1.7019545090506031e+02  -8.7745468134579419e+00 -9.9595313771448190e+01 1.7004744599321344e+02  7.6082706363169494e-01 -9.5802628641996165e+01 1.8676674543081998e+02  1.5983059385130693e+01 2.6937092860531013e+00 4.8166625217875030e+01  9.6999583116702592e-01 -2.5907665104375589e+01 8.0610526251553367e+01  4.4340676454270916e-01 -2.8153724541920067e+01 7.5652127890010746e+01  3.0873363863267102e+01 -4.6156534495440049e+01 9.7663203164932781e+01  3.4359521048328112e+01 -7.5003013025300490e+01 1.2997613155742749e+02  2.2105359338361751e+01 -5.4789579132100656e+01 1.1400469548717555e+02  2.4015305074603699e+01 -6.0996457468745660e+01 1.1010206709177558e+02  1.8126949634592626e+00 -4.8310590994248884e+01 9.2737091856675406e+01  1.5101530709407065e+00 -4.4352130243338266e+01 9.8451141666225482e+01  1.3490195204783828e-01 -3.9357877627259597e+01 1.0227781298064373e+02  1.5008140370837692e+01 -6.7465595144652639e+01 1.2606344253065987e+02  1.6819926395888256e+01 -7.3813014751724296e+01 1.2129392797867648e+02  -7.7131729215844214e-01 -6.6506652807987791e+01 1.2813732699841603e+02  6.6482594179321997e-01 -5.4826303154314786e+01 1.1750260672396013e+02  9.2334315238493725e-01 -6.0859142312767680e+01 1.1303548457050815e+02  -5.2636238153846182e-01 -7.3307998847524075e+01 1.2353956771103304e+02  3.8332845017430489e-01 -5.0343843856789853e+01 1.2145416037236465e+02  -8.8742693804376535e-02 -6.0408109718797185e+01 1.3235724755627965e+02  1.4754919288865294e+01 -6.1345266760379218e+01 1.2986812890332595e+02  2.3908017376753026e+01 -2.2558754793933904e+01 6.3856050163784865e+01  3.5818468061051277e+01 -6.2669068794999845e+01 1.0598599255338132e+02  3.4098099429258980e+01 -4.4788230767190470e+01 7.8266527949233307e+01  1.5324290169861296e+01 -4.5432206854807276e+01 8.4993706692238632e+01  4.8479211738277968e+01 -6.0663182362841797e+00 5.0045831061405430e+01  4.5923651273385858e+01 -4.9106220539322933e+01 9.4765752531336062e+01  5.0116995753693239e+01 -2.7613191744650937e+01 6.4130132198303002e+01  6.8248358638583724e+01 -1.4883411363681370e+01 5.5005964470255883e+01  6.0292159617511437e+01 -5.2517251947830189e+01 9.2553349622687193e+01  6.1392169867951296e+01 -7.4169323852441167e+01 1.1597567993118633e+02  6.2097485784574552e+01 -6.8333474995847453e+01 1.1767143607499146e+02  4.7348470767067660e+01 -1.0056919170840007e+02 1.4494034663255204e+02  -1.1453586119558188e+00 -9.4446845177809323e+01 1.8147492743818077e+02  4.2191236750281407e+00 -8.9622237409049930e+01 1.6214836936229642e+02  8.7554882698250900e+00 -9.7905780648527625e+01 1.6312818202966628e+02  7.4855470613185195e+00 -9.4408241722874692e+01 1.6593053208711956e+02  2.7345067957901716e+00 -9.1940848321096823e+01 1.5974943537181861e+02  4.9786121160900638e+00 -7.8174377642260794e+01 1.5588424533140255e+02  2.8426292309018653e+00 -8.0119948247735991e+01 1.5192267870831284e+02  -1.3449566926632064e-01 -8.2784440444656781e+01 1.4823280175385835e+02  2.3122892881572232e-01 -7.2303254820549554e+01 1.4145928159873361e+02  4.1757606169958139e+00 -7.7400759642955919e+01 1.4030465895273565e+02  8.8799194996102149e-01 -7.9640545550790947e+01 1.3695768019399995e+02  4.6445828672594862e+00 -8.4750601989159705e+01 1.3515680857614549e+02  4.2506991935056373e+00 -6.9745950516439834e+01 1.4419387620898178e+02  1.8181529598741040e+00 -7.6426826999329165e+01 1.7166770359088449e+02  9.7890224867173234e+00 -8.2593809203208266e+01 1.5611954061816115e+02  1.4635856814014497e+01 -8.0238130032218493e+01 1.3991171470330582e+02  2.3506571630029427e+01 -8.8908181815249549e+01 1.4778481437512198e+02  1.7112735808368800e+01 6.1123960884789303e+00 3.6585897544567388e+01  1.3474751644325060e+01 -7.2851814178156431e+01 1.4360888386186656e+02  1.1442646592389752e+02 1.7745799182600391e+02 1.7727200709594283e+02  -1.1778468528151178e+01 1.5461759815807122e+02 1.6771141710213101e+02  9.0706449003815557e+00 1.4436775307731341e+02 1.5290588689325324e+02  -8.2090811093600173e+00 1.5937575301637494e+02 1.6071452478504307e+02  3.8696592882221288e+00 1.4075459696545695e+02 1.4637478959635425e+02  9.8636094933553176e-01 1.3435139431980969e+02 1.5145375819318056e+02  1.3202311747849894e+01 1.3461488821422969e+02 1.4623367243996233e+02  1.7320925523642320e+01 1.2743389089230126e+02 1.4514184579210146e+02  1.3087345588249557e+01 1.2733654859843990e+02 1.5078753892172199e+02  4.4310018785516423e+00 1.2643761496856614e+02 1.5587941200336340e+02  1.3040362223737787e+02 1.7863086604064867e+02 1.8928889043550390e+02  1.1850230942919529e+02 1.6166319000110227e+02 1.7964138642735008e+02  -8.4064565561227553e+00 1.5019152530160898e+02 1.6998131249022751e+02  1.9427374105437266e+01 1.3703121809045618e+02 1.5537278379714513e+02  1.1298917467582690e+02 1.5379222682115474e+02 1.8766320919568636e+02  2.0225120670721228e+01 1.2394657705061627e+02 1.6100782409647837e+02  -2.4594371384084329e+01 1.4560597055668126e+02 1.7939000161590170e+02  8.8109938841528148e+00 1.3322338949181699e+02 1.6113906821444991e+02  9.8774909024956852e+00 1.2208380572019387e+02 1.5619419454076296e+02  1.6032374892017693e+01 1.2022511888354360e+02 1.4980021335869435e+02  1.6479423764381419e+01 1.1323356843805877e+02 1.5358176958109539e+02  1.2989413041582472e+02 1.6918557981323522e+02 1.9366581992954653e+02  -4.2781401832062677e-01 1.5208321781480294e+02 1.6598745139734012e+02  -1.3596854210690579e-01 1.3703426686331895e+02 1.7334899996127066e+02  3.6234216127589183e+00 1.2666097531674498e+02 1.5870371671735677e+02  1.8582889844298713e+00 1.3644056112885502e+02 1.5405334607693453e+02  7.1267531271866211e+00 1.2015232687010267e+02 1.5720053451854037e+02  4.8749277929195181e+00 1.3007119416546428e+02 1.5205526148660860e+02  7.3096835284692352e-01 1.3416310618721332e+02 1.6563039545722759e+02  -1.0244869655097197e+00 1.3159026811922456e+02 1.5747893555681742e+02  4.6208416138202230e-01 1.4168707824448796e+02 1.4981688811715938e+02  1.6362898972319334e-01 1.2132676261197855e+02 1.6699472188086102e+02  9.0900312587396948e-01 1.3543912040278553e+02 1.6401286835904267e+02  8.4293583823655229e+00 1.1348551629615696e+02 1.5664192683053432e+02  5.2213515365624916e+00 1.2304585605134808e+02 1.5014348078035337e+02  2.2596862774189482e+01 1.4722051775735565e+02 1.4456741109022803e+02  1.6797933499927897e+01 1.3964070901632573e+02 1.3369057277188338e+02  1.5608956249608278e+01 1.3409689488297656e+02 1.3966108215413212e+02  1.0456790681196507e+01 1.4181032586996557e+02 1.4237703192794413e+02  -1.5272296910870911e+00 1.5971216366014085e+02 1.5648562661075937e+02  5.0772009141846972e+00 1.3578062388361622e+02 1.4632629406897442e+02  5.8942425995914738e-01 1.5264460313473478e+02 1.5230715210795617e+02  -6.9779628483613161e+00 1.4150890910180925e+02 1.5410539737273396e+02  3.2070675072916162e+00 1.4446036793030473e+02 1.4596190303849070e+02  6.0948474718541705e+00 1.4338866811604265e+02 1.4003199732948076e+02  -8.2296581256425902e-02 1.5339286802140990e+02 1.3867063854519577e+02  -8.8261890592915133e+00 1.3064783741108997e+02 1.4973723243150232e+02  2.3596148193434374e-01 1.2708433436586701e+02 1.4479230084957197e+02  5.6001628892528537e+00 1.3385158691227153e+02 1.3932932366315524e+02  6.3447087295934930e+00 1.2832825236348464e+02 1.4444223196900484e+02  -9.9510396913548557e-02 1.2691626991651719e+02 1.4080539349540410e+02  -8.6684619537565037e+00 1.3460839107297846e+02 1.4673189274131053e+02  1.3222333291130339e+00 1.4884654526750134e+02 1.5340253641353695e+02  9.0716422211679273e+00 1.4212799887777450e+02 1.3356730038007930e+02  -4.8686130092629232e-01 1.3074123147482010e+02 1.4028023290455380e+02  1.0822089551501207e+02 4.4166415514425829e+01 6.3866184037613962e+01  1.0628929628422340e+02 4.5915670861307390e+01 6.2127618183327940e+01  1.0802814703522522e+02 4.7990635605019122e+01 6.2609925954168553e+01  1.0756079808902642e+02 4.5456484199505198e+01 6.4898767038639264e+01  1.0799082248390872e+02 4.6187737836176254e+01 6.5328919406822465e+01  1.0646391591005177e+02 4.6398738483100701e+01 6.2303572750131544e+01  1.0856840156741566e+02 4.8805005049519878e+01 6.3202363541245973e+01  1.0899509556193748e+02 5.1463242574283072e+01 6.1069294398883819e+01  1.0693304458746375e+02 4.8913518650695025e+01 6.0277268869744709e+01  1.0476993881559285e+02 4.6640129778592943e+01 5.9569999410458493e+01  1.0689629995195760e+02 4.5309679328016564e+01 6.1676164858041041e+01  1.0537247859313378e+02 4.5947007252810010e+01 5.9333670814730013e+01  1.0892469229462361e+02 4.7010751725117650e+01 6.1950644594654072e+01  1.0936199140108045e+02 4.9520492820329110e+01 5.9482342163633660e+01  1.0739222910905190e+02 4.7836915553947996e+01 5.9710672942907394e+01  1.0966013990278836e+02 4.5519640807077870e+01 6.4117970299359897e+01  1.0694872848313490e+02 4.6393070498089962e+01 6.2025699584059502e+01  1.0942866014817260e+02 4.8863642709430636e+01 6.3098875214983167e+01  1.0896218233582323e+02 4.6158288255995842e+01 6.5018257243571043e+01  1.7479140831751010e+01 1.4646285788831394e+01 3.2689328740880235e+01  3.3451742267317833e+01 6.6674855238276933e+01 8.3875717942824735e+01  4.4768416091279320e+01 5.4272646929219420e+01 6.7307473791648604e+01  1.1103772108702787e+00 4.6633517053069170e+01 5.9238635065333348e+01  1.1959634451884642e+00 6.8595553820169457e+01 7.4802436926341130e+01  2.4829719285270787e+01 8.2020197851560511e+01 9.3786440494832036e+01  3.2668079903127293e+01 7.1260438621121907e+01 7.9202769236792108e+01  5.8966307094892038e+01 8.1741968704700724e+01 9.0541020477021419e+01  4.7326487229489203e+01 9.1522398423319018e+01 1.0394026318265729e+02  3.5747568807116082e+01 9.9151933541422736e+01 1.1644628629678883e+02  3.9047386166337854e+00 4.1146958367910088e+01 6.1883462133997604e+01  1.9545438874151899e+00 6.4183898923103598e+01 8.0216065073795036e+01  2.4949557238188557e+01 7.6852383069755987e+01 9.8272472511891110e+01  8.9253626725305857e-01 5.7565337785619512e+01 8.2793090298485453e+01  -9.6858157354170149e-01 7.8698122624825942e+01 1.1465686014910084e+02  1.8164264628674960e+01 8.5834583659231143e+01 1.1231409302254144e+02  -3.3767100084496438e-01 8.5514672980578382e+01 1.1113646146652707e+02  1.3302549532495751e+00 7.7520068990039036e+01 9.8054937721194733e+01  9.9221996094431064e-01 8.2496868318401141e+01 9.2598026805031310e+01  -7.5229744269047283e-01 9.1475061490299382e+01 1.0619211339707515e+02  1.7134656659659111e+01 9.1920635177840111e+01 1.0816793100372917e+02  1.8607294379601952e-01 7.1067325601223558e+01 1.0096047089664764e+02  3.5089484434093038e+01 1.1048278695317771e+02 1.0705421848470402e+02  3.5444445463185311e+01 1.0485396310167259e+02 1.1178779228822036e+02  4.7991720470988618e+01 9.6316526938413958e+01 9.9856689793143389e+01  2.4406270373405157e+01 8.7568684847183405e+01 8.8843943349922114e+01  1.7997617274259454e+01 9.7435326453195458e+01 1.0282011266112390e+02  6.1911597185899125e-01 8.7864743332129279e+01 8.8280818552044337e+01  -1.6379063216822301e-01 9.7833417662387575e+01 1.0167892299375571e+02  4.7500331603835086e+01 1.2179888190205151e+02 1.2944147471454178e+02  7.1658407390006303e+01 1.0761973607847290e+02 1.1210600079064147e+02  5.1558068126579712e+01 1.2819419603575017e+02 1.2659948525938542e+02  8.2580827036420459e+01 3.6606847950904957e+01 4.5971041453031184e+01  8.0166131506932530e+01 3.4659029494106470e+01 4.5513132518972959e+01  8.2075577764686400e+01 3.4091379077958244e+01 4.7983247862331133e+01  8.0447031275910760e+01 3.4686125027838763e+01 4.5771076226407295e+01  8.1346883274522938e+01 3.1555584751768642e+01 4.9787453155891100e+01  8.7707193701375360e+01 3.5487342114104187e+01 5.2218864643465416e+01  8.5077205824398220e+01 3.6206280835114974e+01 4.8884403823614484e+01  8.4338381233785967e+01 3.3373514086398380e+01 5.0984269561974159e+01  8.7267719000788745e+01 3.5451141967379058e+01 5.1832880035519089e+01  8.5494869399361292e+01 3.6242980211309344e+01 4.9250353558879091e+01  8.2708107192034973e+01 3.4148483726446834e+01 4.8561026890124985e+01  8.4705741167160880e+01 3.3385945060152949e+01 5.1328230442038333e+01  8.1937103038974641e+01 3.1481954646893961e+01 5.0453454088011291e+01  8.3296596809931884e+01 3.6803450590012879e+01 4.6492479105025403e+01  8.6863611580821953e+01 3.5438159162900213e+01 5.1419988918163689e+01  4.4383667656903150e+01 4.8890001799603702e+01 7.0606901625154023e+01  4.7640941439680432e+01 8.5989224502372977e+01 1.0799639581968451e+02  5.8424287308562221e+01 7.7377302992423708e+01 9.4858252938723311e+01  5.8430728188173852e+01 7.2275430911932503e+01 9.7879335772394342e+01  3.2319453452091906e+01 6.1651040142836848e+01 8.7437973406702241e+01  1.7249592615327039e+01 7.9859276399811478e+01 1.1612788238010667e+02  2.4335547157966214e+01 7.0706613058410966e+01 1.0163888349542435e+02  3.5166578980599589e+01 9.3323179966426267e+01 1.2029353294277810e+02  4.6481330584717739e+01 8.1021930925054150e+01 1.1128430908424207e+02  3.5227823095198247e+01 8.7498461127825422e+01 1.2383242914935730e+02  4.8039116034272553e+01 1.1791534230931879e+02 1.3581265558703532e+02  7.3009525539496750e+01 1.0513121829757118e+02 1.1861274549301162e+02  4.7891281815880561e+01 1.1130082529040655e+02 1.3781341349706145e+02  7.0567477226293406e+01 9.8056003217836633e+01 1.1961644677043563e+02  4.7710590243683406e+01 1.0591347084395034e+02 1.4167979310855247e+02  7.2671247474557887e+01 9.4941546827261973e+01 1.2487924369700821e+02  5.2537689987985580e+01 2.2314947713232606e+01 3.4058185421109286e+01  6.1003953951374697e+01 5.3920976168425682e+01 6.9836849340686229e+01  6.1008337625538417e+01 5.8359688888754469e+01 6.7065051684960537e+01  7.2010173489554532e+01 3.2625644476532571e+01 4.0866685894788475e+01  7.4607359427198475e+01 7.9428182027670587e+01 9.2027955529022265e+01  7.3855756179087606e+01 8.3786932789993642e+01 8.7942683945708268e+01  8.6048937790553850e+01 7.6862951404722651e+01 9.2142929294160879e+01  9.9908050920868760e+01 1.0038511983766686e+02 1.0791082071970226e+02  9.9390482575855160e+01 1.0033470441584073e+02 1.1657927798710699e+02  9.9643735749208844e+01 9.1173062420901189e+01 1.1508273119462609e+02  7.3503475352804458e+01 7.5037361702459208e+01 9.5165811942162719e+01  8.6402258140317102e+01 6.0536288566652686e+01 6.8028638283742751e+01  7.4345493378272323e+01 5.7713268485631957e+01 6.9414574496847322e+01  8.2946353217512552e+01 3.6699571464358634e+01 4.6248895447988900e+01  8.5580219627646798e+01 3.8932735957562016e+01 4.6668381927677970e+01  8.7941208169909089e+01 4.1226827172049433e+01 4.6709397305046188e+01  8.5200568971057535e+01 3.8829738182677914e+01 4.6375611975216756e+01  8.7550874914454155e+01 3.8358819285146978e+01 4.9192066704106814e+01  8.4711403265739847e+01 3.6096961986191324e+01 4.8610646088320216e+01  8.2400858520795126e+01 3.4148662089193614e+01 4.8244425088297554e+01  8.4015644667343281e+01 3.3419068822975042e+01 5.0603855677245569e+01  2.6049168232227675e+01 3.9569482431255807e+01 4.7234374013527024e+01  8.3270704156347662e+01 3.9182536655986155e+01 4.4079444977797522e+01  8.5419190803421088e+01 4.1395452878846513e+01 4.4034544203057195e+01  8.3024563738525046e+01 4.1445266234570717e+01 4.1580098185542163e+01  8.2919188273063838e+01 3.9052778083994063e+01 4.3862484512801188e+01  1.9972629024831312e+02 8.5306174388163726e+01 1.0628415591723819e+02  1.1833277099023653e+02 8.1521863569093284e+01 1.0832377156268785e+02  1.2403796240501819e+02 8.3278728030533614e+01 1.0273793638811505e+02  1.0544342868318324e+02 7.2539780010781385e+01 7.9834279945711216e+01  1.2528801515944974e+02 7.7393522768646619e+01 8.5139319410142093e+01  1.0620168743724690e+02 6.8770326341670014e+01 8.2769332363631605e+01  1.0492133706824063e+02 6.5004644113747503e+01 8.5464516811515921e+01  1.2311271460642440e+02 7.6456447230403597e+01 9.8069896708262149e+01  1.4795062778930762e+02 6.6970504066884175e+01 8.7195627518434293e+01  1.9727253904881201e+02 7.8214488285214387e+01 1.0600726687885981e+02  1.2130450623337950e+02 9.0660194876901258e+01 1.0334184392852217e+02  1.1178565621687802e+02 4.9512217701427829e+01 6.1967858313840019e+01  1.0969469546762232e+02 5.5892738009130348e+01 6.8293038662132403e+01  1.0688713958222206e+02 5.4641380690468992e+01 7.1091140668404918e+01  1.0744837823029133e+02 5.8096111199661358e+01 6.7643716038033816e+01  1.1168414461391207e+02 6.6706838699335023e+01 7.6701791132348433e+01  1.1126770011815310e+02 6.2768381746077715e+01 7.8522809133002141e+01  1.1290610766813724e+02 6.0864427217729705e+01 7.3190390786153031e+01  1.2911855270860667e+02 5.8620617588819449e+01 7.0622397363015551e+01  1.2225575612395807e+0