<?xml version="1.0"?>
<VTKFile type="UnstructuredGrid"  version="0.1"  >
<UnstructuredGrid>
<Piece  NumberOfPoints="6795" NumberOfCells="27491">
<Points>
<DataArray  type="Float64"  NumberOfComponents="3"  format="ascii">34.061421 29.812147 -19.126433  33.635033 27.407718 -17.9572495  32.5955045 28.440695 -17.963801  33.64138800000001 28.4387 -16.9199125  31.129588 27.069243 -16.801169  32.1691165 26.036266 -16.7946175  32.1754715 27.067248 -15.7572805  33.208645 25.003289 -16.788066  32.602498 29.4733695 -16.924133  31.1365815 28.1019175 -15.761501  21.269646 36.212789 -25.517565  19.9714625 34.751869 -24.276669  18.9376765 35.7952615 -24.2670625  19.9755165 35.793984 -23.2304995  18.681387 35.375179 -20.943434  18.677333 34.333064 -21.9896035  17.643547 35.3764565 -21.979997  16.605707 35.377734 -23.01656  17.639493 34.33434149999999 -23.0261665  18.673279 33.290949 -23.035773  27.662743 31.953814 -23.383444  26.2732595 30.5446835 -22.182058  27.314535 30.5452515 -21.140214  26.2784315 31.5789415 -21.142628  24.89412 31.204069 -18.901812  25.9250515 29.136121 -19.938828  24.888948 30.169811 -19.941242  25.9302235 30.170379 -18.899398  26.966327 29.136689 -18.896984  24.883776 29.135553 -20.980672  29.796369 31.949526 -21.254105  28.381348 30.5431075 -20.0755445  28.387805 31.577492 -19.034703  29.42348 30.5409525 -19.035568  29.050591 29.132379 -16.817031  28.008459 29.134534 -17.8570075  28.014916 30.1689185 -16.816166  26.979241 31.205458 -16.815301  26.972784 30.1710735 -17.8561425  19.141938 40.464965 -23.393097  18.941965 37.90251 -22.155525  17.8778075 38.9649565 -22.157236  18.9167865 38.9624495 -21.120764  20.2060955 39.4025185 -23.391386  21.270253 38.340072 -23.389675  19.980944 37.900003 -21.119053  18.691635 37.459934 -18.848431  17.652656 37.462441 -19.884903  16.613677 37.464948 -20.921375  19.97582 36.8576255 -22.1665545  18.686511 36.4175565 -19.8959325  17.647532 36.4200635 -20.9324045  17.013758 42.589948 -23.396294  14.7399635 41.0763805 -23.183656  17.01334 41.526809 -24.459851  15.950048 42.588491 -24.4614615  14.886338 42.587034 -25.526629  14.7395455 40.0132415 -24.247213  13.6762535 41.0749235 -24.2488235  15.94963 41.525352 -25.5250185  17.012922 40.46367 -25.523408  12.466169 39.562813 -22.971018  31.930064 31.945523 -19.124413  30.4903275 30.538951 -17.970722  30.499577 31.5768205 -16.9236025  31.5368195 30.5400575 -16.923123  29.06909 31.208118 -14.722792  29.0598405 30.1702485 -15.7699115  30.097083 29.1334855 -15.769432  23.399743 36.213718 -23.386539  22.073326 33.68604550000001 -23.2406285  21.0086305 34.7495365 -23.241833  22.073679 34.750001 -22.17632  23.39939 35.1497625 -24.4508475  22.3346945 36.2132535 -24.452052  22.3343415 35.149298 -25.5163605  23.399037 34.085807 -25.515156  20.747615 33.286284 -20.966101  16.8430665 40.011172 -22.1457615  15.7789765 41.07366349999999 -22.14736  16.8183955 41.072054 -21.1095505  18.077848 41.5274565 -23.3946955  17.8824855 40.0095625 -21.107952  16.623033 39.55416 -18.822807  15.583614 39.5557695 -19.8606165  14.544195 39.557379 -20.898426  31.529826 29.507383 -17.962791  30.0900895 28.100811 -16.8091  25.239432 31.581738 -22.1788305  23.8551205 31.2068655 -19.9380145  22.816121 31.209662 -20.974217  23.8499485 30.1726075 -20.9774445  14.885235 40.460828 -27.653937  14.7372435 38.969567 -25.2931895  13.6734 38.968146 -26.358454  13.675702 40.0118205 -25.3124775  15.9490785 40.462249 -26.5886725  12.463867 38.5191385 -24.0169945  12.461565 37.475464 -25.062971  25.532367 36.21106 -21.256574  25.2454465 33.6833675 -20.071186  24.1795885 34.748031 -20.072381  25.221155 34.74811750000001 -19.0307275  26.598225 35.1463965 -21.255379  27.664083 34.081733 -21.254184  26.287013 33.683454 -19.0295325  24.909943 33.285175 -16.804881  23.8683765 33.2850885 -17.8465345  22.82681 33.285002 -18.888188  21.015096 36.85601 -21.128894  22.334998 37.276895 -23.388107  22.335977 38.3393415 -22.324682  22.079841 35.792833 -21.127326  23.400722 37.2761645 -22.323114  21.040565 35.7944485 -22.1649865  21.2699495 37.2764305 -24.45362  17.012628 38.336205 -27.651166  15.772286 36.8603415 -26.367372  15.7748855 37.9035205 -25.3215935  14.7370965 37.9058345 -26.3570685  14.5345435 36.427657 -24.0377995  13.4967545 36.429971 -25.0732745  13.499354 37.47315 -24.027496  14.537143 37.470836 -22.992021  14.531944 35.384478 -25.083578  21.271252 40.466002 -21.262747  19.9814435 38.962968 -20.055589  21.2707525 39.403037 -22.326211  20.206595 40.4654835 -22.327922  19.725787 36.415941 -18.858272  20.759939 35.371948 -18.868113  19.720663 35.3735635 -19.9057735  21.046668 37.8992725 -20.05406  21.036158 33.688378 -24.2754645  19.710447 33.2886165 -22.000937  26.5988585 36.2091365 -20.1920055  27.6647165 35.144473 -20.1908105  15.9489315 39.3985165 -27.6525515  17.012775 39.3999375 -26.587287  23.1132765 34.74936 -21.1373635  24.4655305 35.148775 -23.3856945  24.466055 36.212389 -22.3215565  24.179064 33.684417 -21.136519  25.5318425 35.147446 -22.320712  25.531318 34.083832 -23.38485  23.1394665 33.685058 -22.1754755  23.107579 32.6477345 -23.2446865  24.4651775 34.0848195 -24.450003  24.1737195 32.646747 -22.1795335  21.781868 32.247973 -20.970159  29.424074 31.6047465 -17.97118  30.8632165 31.9475245 -20.189259  30.8638105 33.0113185 -19.124871  29.797557 34.077114 -19.125329  29.796963 33.01332 -20.189717  24.1727905 31.583298 -23.2439115  26.5961015 31.955374 -24.448525  26.5970305 33.018823 -23.384147  25.530389 33.020383 -24.449228  25.52946 31.956934 -25.513606  19.140166 38.339696 -25.520139  17.8729365 36.858715 -24.2683495  16.836055 36.862087 -25.3018585  16.8386545 37.905266 -24.25608  15.571425 36.424285 -23.0042905  15.5688255 35.381106 -24.050069  10.632571 42.580247 -29.787182  10.5348725 40.0146975 -28.450429  10.5349595 41.078506 -27.386534  9.471693999999999 41.076625 -28.4516805  11.6957495 41.5183195 -29.7859305  11.6958365 42.582128 -28.7220355  12.759102 42.584009 -27.656889  12.759015 41.5202005 -28.720784  12.758928 40.456392 -29.784679  8.310817 39.573003 -27.116179  15.7750325 38.967253 -24.2577145  13.6790175 42.119272 -23.201711  14.7427275 42.120729 -22.1365435  12.471697 41.65151 -20.876793  12.468933 40.6071615 -21.9239055  26.5977005 34.0827825 -22.319517  20.753777 34.329116 -19.917107  21.7933745 34.328475 -18.8781505  21.7872125 33.285643 -19.9271445  18.076397 38.33795050000001 -26.5856525  18.076544 39.40168300000001 -25.5217735  25.212719 32.6439505 -21.143331  22.8214655 32.247332 -19.9312025  26.2791015 32.642901 -20.077998  23.860465 32.2445355 -18.895  24.9020315 32.244622 -17.8533465  18.9107765 36.8574375 -23.2317865  20.204906 37.2762425 -25.518852  19.714501 34.3307315 -20.9547675  27.3452445 31.5767975 -20.0779585  25.9366805 31.2047635 -17.8585565  28.388399 32.641286 -17.970315  15.782894 42.1187255 -21.0983805  14.55203 41.647503 -18.800467  14.5481125 40.602441 -19.8494465  13.5118635 41.6495065 -19.83863  13.507946 40.6044445 -20.8876095  17.8769215 37.902322 -23.220757  16.609692 36.421341 -21.9689675  15.57541 37.467892 -21.956698  19.141052 39.40233050000001 -24.456618  20.2052095 38.339884 -24.454907  16.618355 38.509554 -19.872091  17.657334 38.507047 -18.835619  13.501656 38.5168245 -22.9815195  24.4642485 33.0213705 -25.514381  13.6734175 37.9041195 -27.422463  12.6353945 38.9714075 -27.3931975  14.8852525 39.3968015 -28.717946  14.88527 38.332775 -29.781955  12.635412 37.907381 -28.4572065  10.385554 37.481987 -27.132458  11.4235595 37.4787255 -26.0977145  18.9471425 40.010081 -20.042777  19.143056 42.590502 -21.266442  17.8830445 41.07233100000001 -20.0446245  18.9233745 41.070677 -19.0059485  20.207154 41.528252 -21.2645945  19.9874725 40.008427 -19.004101  18.703693 39.550852 -16.745455  17.663363 39.552506 -17.784131  18.697664 38.505393 -17.796943  17.888063 42.11728 -18.994657  16.63307 41.644058 -16.722872  16.6280515 40.599109 -17.7728395  16.847543 42.1190025 -20.0334545  15.59255 41.6457805 -17.7616695  15.5875315 40.6008315 -18.811637  27.35375 33.6811445 -17.965105  28.396262 33.679381 -16.924357  28.729556 31.95167 -22.3187745  28.730226 33.0156295 -21.2541445  27.663413 33.0177735 -22.318814  24.186339 35.7887125 -19.024949  22.8335605 34.3256835 -17.840756  12.6367095 40.014577 -26.3487135  10.388184 39.568326 -25.04349  11.4248745 38.521895 -25.0532305  10.386869 38.52515649999999 -26.087974  14.7353775 36.86376 -27.400862  12.459846 36.4333895 -26.1067645  12.458127 35.391315 -27.150558  13.4950355 35.3878965 -26.117068  13.6716985 36.86204499999999 -28.4662565  15.948949 38.33449 -28.7165605  11.4218405 36.436651 -27.141508  23.146153 35.791504 -20.0623435  15.578936 38.51116349999999 -20.9099005  18.078407 42.590225 -22.331368  19.142497 41.5277335 -22.3297695  29.4333235 32.642616 -16.9240605  28.73082 34.0794235 -20.1897565  16.8132995 38.964309 -23.2223915  15.7785585 40.0105245 -23.210917  18.07743 40.4643175 -24.4582525  14.540669 38.51410749999999 -21.9452235  13.505182 39.560096 -21.934722  11.573556 40.012359 -27.4140845  11.572241 38.9691895 -28.4585685  9.3481855 38.527495 -27.1243185  9.349500500000001 39.5706645 -26.0798345  13.822099 39.3945835 -29.783317  13.8220815 40.45861 -28.719308  13.8221685 41.5224185 -27.655413  28.0241655 31.206788 -15.7690465  27.321662 32.6435955 -19.0347425  25.944592 32.2453165 -16.810091  2.126951 40.438179 -40.43487  1.0634755 37.92426 -40.0122645  3.1904275 39.3752925 -40.4342805  2.1270185 39.3739795 -41.499002  2.127086 38.30978 -42.563134  2.126952 36.8613735 -40.011675  1.063543 36.8600605 -41.0763965  3.190495 38.311093 -41.4984125  4.253904 38.312406 -40.433691  0 35.410341 -39.589659  0.001585499999999795 39.37393400000001 -41.5005655  0.001517999999999908 40.4381335 -40.4364335  -1.0619575 37.92421450000001 -40.013828  -2.123915 40.438088 -40.437997  0 38.307692 -44.692308  0.001656999999999798 37.2454385 -43.6289515  0.001566499999999804 38.309681 -42.5647995  -1.0619765 38.308637 -43.6293865  2.1271765 37.2455375 -43.627286  1.0636
[...]
<PointData  Vectors="u"> 
<DataArray  type="Float64"  Name="u"  NumberOfComponents="3" format="ascii">7.0128107319858373e+01 -4.3160552804552403e+01 2.6966882313764355e+01  7.1813892136685951e+01 -4.3472620267968317e+01 2.8346534961629690e+01  6.9991684527426273e+01 -4.2897690381508383e+01 2.7094922925531687e+01  7.1205080284534716e+01 -4.4720518944611996e+01 2.6485700091084386e+01  6.9862398888915592e+01 -4.2627095409480823e+01 2.7234510747560357e+01  7.1652188596528859e+01 -4.3179250043151200e+01 2.8478865444904155e+01  7.1078895883211800e+01 -4.4459031539545968e+01 2.6618548473037766e+01  7.3570675625340300e+01 -4.3737915873398009e+01 2.9832064645254331e+01  6.9382047881443938e+01 -4.4048210348606432e+01 2.5328737172540393e+01  6.9269691288855697e+01 -4.3789539643816177e+01 2.5480511997385616e+01  5.6182873890079293e+01 -3.2609531928001928e+01 2.3573460128025584e+01  5.6235748890160075e+01 -3.2548613983541379e+01 2.3686847747539019e+01  5.5268560593509392e+01 -3.2294019185395079e+01 2.2976419844456611e+01  5.5962046233189476e+01 -3.3272010066366590e+01 2.2689779767024220e+01  5.5703153159245545e+01 -3.3907295495318813e+01 2.1796176039270438e+01  5.6013045229806750e+01 -3.3213528368926781e+01 2.2799971903869320e+01  5.5045302377275902e+01 -3.2923983719668151e+01 2.2119247455612904e+01  5.4384656041938150e+01 -3.1983388880923751e+01 2.2400391740002416e+01  5.5324029055562320e+01 -3.2243896399736066e+01 2.3081473328270281e+01  5.6292388198093420e+01 -3.2493384467390946e+01 2.3799147357865319e+01  6.2538385730275053e+01 -3.6068285762892849e+01 2.6468900769722122e+01  6.2503483260834820e+01 -3.5924740019968141e+01 2.6579334949379209e+01  6.3499927107700060e+01 -3.7246011561570533e+01 2.6251546267690710e+01  6.2184188775245417e+01 -3.6889193431897532e+01 2.5293424411342716e+01  6.1775200263597988e+01 -3.7659928716994010e+01 2.4117704923459918e+01  6.3477345330788353e+01 -3.7113092501832348e+01 2.6362348028017561e+01  6.2151781520926143e+01 -3.6748281731092007e+01 2.5404080083684136e+01  6.3092248690614646e+01 -3.8078146616546235e+01 2.5013005026050244e+01  6.4487981815149766e+01 -3.8493564574394476e+01 2.5996120884776676e+01  6.2473083491274920e+01 -3.5785539451003068e+01 2.6689980095866446e+01  6.4585419518849193e+01 -3.8855601458201967e+01 2.5728291765461123e+01  6.4531705420641757e+01 -3.8672807824250228e+01 2.5859551353799660e+01  6.4083347733306610e+01 -3.9652791822863300e+01 2.4426480345964244e+01  6.5551333077150275e+01 -4.0138603296200372e+01 2.5413114506522174e+01  6.6534722714840640e+01 -4.1497613545639787e+01 2.5036347216463245e+01  6.5507515986949045e+01 -3.9964775807205626e+01 2.5542105677012437e+01  6.4986298831915988e+01 -4.0938053615336180e+01 2.4051796467668868e+01  6.3537160381287080e+01 -4.0391463093842539e+01 2.3148783804019057e+01  6.4043430448280674e+01 -3.9475887124532377e+01 2.4566493388603675e+01  5.3576838961241535e+01 -3.3305254052931026e+01 2.0272672429940634e+01  5.4646984361912878e+01 -3.3627180893169211e+01 2.1021185160160421e+01  5.3672510868527077e+01 -3.3271677981890434e+01 2.0399567317424758e+01  5.4263027900396814e+01 -3.4223183963991175e+01 2.0037564242422199e+01  5.4545886699018723e+01 -3.3663678696419659e+01 2.0882993491526861e+01  5.5557724392338699e+01 -3.4024026863051290e+01 2.1533862645611602e+01  5.5271674923514873e+01 -3.4614228478681767e+01 2.0656594379488013e+01  5.4953574036831419e+01 -3.5175473131547633e+01 1.9778739997671586e+01  5.4366039204330100e+01 -3.4191169563475320e+01 2.0172492032996931e+01  5.3766994244850189e+01 -3.3240982173677267e+01 2.0526425615370847e+01  5.5629259426651359e+01 -3.3962827715787533e+01 2.1665968893293492e+01  5.5341201285292470e+01 -3.4555647293862002e+01 2.0786044841460249e+01  5.4718967736468358e+01 -3.3574781738308744e+01 2.1144319808234275e+01  5.1715855664434294e+01 -3.2586890396228874e+01 1.9132235283860307e+01  5.1293759550005880e+01 -3.1698758486520148e+01 1.9588150433448181e+01  5.2063882714789656e+01 -3.2028602529267076e+01 2.0035639412797575e+01  5.1170353330506551e+01 -3.1690150400959212e+01 1.9478986652632283e+01  5.0623060170018405e+01 -3.0808886964916145e+01 1.9817971944936772e+01  5.1619273978770281e+01 -3.1142751495315654e+01 2.0473893506451819e+01  5.0746957952895301e+01 -3.0818174493360928e+01 1.9923175956992431e+01  5.1499914992487476e+01 -3.1133799678394134e+01 2.0365486184515138e+01  5.2386194541286606e+01 -3.1451913696814540e+01 2.0934926891013099e+01  5.0862862593437221e+01 -3.0833074604983015e+01 2.0030884024031756e+01  6.6664048245152998e+01 -4.1965539565735433e+01 2.4696867185797299e+01  6.6596971451275607e+01 -4.1732692618124638e+01 2.4865500652261932e+01  6.5995744535010999e+01 -4.2720991123705076e+01 2.3271126485877648e+01  6.7623239044935673e+01 -4.3370151661983407e+01 2.4253972700449498e+01  6.5286789518691037e+01 -4.3410398556431630e+01 2.1877687743533262e+01  6.5944360483593456e+01 -4.2493902110770563e+01 2.3449617754835590e+01  6.7566153900751004e+01 -4.3144490237051450e+01 2.4420326421565594e+01  5.7692000660490400e+01 -3.4733296323511958e+01 2.2958852437868316e+01  5.8056258508160752e+01 -3.3856010539798056e+01 2.4199800184074867e+01  5.6974039062565701e+01 -3.3559701866869410e+01 2.3412134662263345e+01  5.7736106099488353e+01 -3.4641589134124118e+01 2.3094134099549191e+01  5.8007849285662097e+01 -3.3942998378800844e+01 2.4065373363656541e+01  5.6934637004888813e+01 -3.3649988414850291e+01 2.3283350833274387e+01  5.7207648092450249e+01 -3.2868651879193933e+01 2.4339888324369149e+01  5.8284188732412922e+01 -3.3122054498441408e+01 2.5162377445804150e+01  5.7783343659685556e+01 -3.4557056839206389e+01 2.3226665806057984e+01  5.2750966658713544e+01 -3.2932588578501353e+01 1.9816971347340871e+01  5.1833559196370999e+01 -3.2576187015270762e+01 1.9252380328894976e+01  5.2373292041616814e+01 -3.3471577677178310e+01 1.8895157628049269e+01  5.2634704297514496e+01 -3.2943827102439442e+01 1.9689444593506849e+01  5.3315051293521108e+01 -3.3856113350407156e+01 1.9456127199215508e+01  5.3026114332415737e+01 -3.4386117821019759e+01 1.8641544241443050e+01  5.2491692855412218e+01 -3.3465208594622332e+01 1.9024540110452897e+01  5.1944203700186627e+01 -3.2570185749102841e+01 1.9374827155568944e+01  6.8230351808501837e+01 -4.2312204277578566e+01 2.5922349779321912e+01  6.8143187064367766e+01 -4.2056880142589158e+01 2.6091746007904892e+01  6.1254666144018223e+01 -3.5626165995295885e+01 2.5631410657465153e+01  6.0904812847667309e+01 -3.6399168613495441e+01 2.4504007169064455e+01  6.0033431314082520e+01 -3.5192557133645437e+01 2.4842260981091293e+01  6.1225685247729658e+01 -3.5495885912351440e+01 2.5728758172385049e+01  5.1238483447555446e+01 -2.9719549279769868e+01 2.1520439995435382e+01  5.1917280476667578e+01 -3.0581156409620988e+01 2.1332915634659699e+01  5.1346098366316120e+01 -2.9728207310665418e+01 2.1615793064066928e+01  5.1060878368849849e+01 -3.0272444359367288e+01 2.0785945809589126e+01  5.1807131081178468e+01 -3.0571798603490858e+01 2.1234626292995181e+01  5.1166810788979667e+01 -3.0288853538915209e+01 2.0877622448356103e+01  5.1448619720081687e+01 -2.9741654431327742e+01 2.1707328094235272e+01  5.9224173454007612e+01 -3.7060884295633571e+01 2.2163544836120760e+01  6.0507420971984850e+01 -3.7384657292141547e+01 2.3125930991514679e+01  5.9261238094604948e+01 -3.6938487993783276e+01 2.2322305916466409e+01  6.0016718269399306e+01 -3.8158625075385785e+01 2.1855665942494333e+01  6.0461589552280010e+01 -3.7509946681030179e+01 2.2951533375101189e+01  6.1775224895134023e+01 -3.7966170965825512e+01 2.3810919210705499e+01  6.1322766149110592e+01 -3.8664521393421310e+01 2.2656519650907970e+01  6.0819268190481552e+01 -3.9309457976450908e+01 2.1510717838342721e+01  6.0068996411085941e+01 -3.8037744278138355e+01 2.2027440689550872e+01  5.9300720761079504e+01 -3.6824776373372998e+01 2.2476588998692623e+01  5.6291299471665205e+01 -3.4987608474215449e+01 2.1301735679699384e+01  5.6596948263948903e+01 -3.4377012321600262e+01 2.2220688313445393e+01  5.6230406040327267e+01 -3.5074418979799020e+01 2.1154521331199312e+01  5.7383562805446246e+01 -3.5381697331387045e+01 2.2001161720400230e+01  5.7312465403217139e+01 -3.5465129125974826e+01 2.1848099296104198e+01  5.6677051128051097e+01 -3.4314180722811130e+01 2.2365220349800460e+01  5.5886782077889983e+01 -3.3330248749439676e+01 2.2556970719654434e+01  5.2935624533217137e+01 -3.0236091969879098e+01 2.2699829955219077e+01  5.3023771832716854e+01 -3.0224309273070766e+01 2.2798979787415774e+01  5.2773149419793938e+01 -3.0835760305835805e+01 2.1938339284747638e+01  5.2185521016998571e+01 -2.9993924875450578e+01 2.2190698032034224e+01  5.2860568293060645e+01 -3.0830460574971777e+01 2.2030899582170925e+01  5.2273749220182886e+01 -2.9987944360497682e+01 2.2285859974420635e+01  5.2010672352777959e+01 -3.0569221151884328e+01 2.1440788943492485e+01  5.2586684719843518e+01 -3.1431653654564737e+01 2.1154662905664857e+01  5.3106793914077450e+01 -3.0215369704474877e+01 2.2891274862825153e+01  5.4770246504605382e+01 -3.5283272373603722e+01 1.9487677250331981e+01  5.4861568612853567e+01 -3.5226415038799551e+01 1.9633974601232755e+01  5.5177407352932775e+01 -3.4669304468152156e+01 2.0508709593973954e+01  5.4178290600229964e+01 -3.4281712081103080e+01 1.9895095075710994e+01  5.5973010605727943e+01 -3.5580755550323488e+01 2.0391739751389114e+01  5.7035632174025849e+01 -3.5994559457658767e+01 2.1041589405215152e+01  5.6374677267021731e+01 -3.4928771843155666e+01 2.1443143287888496e+01  5.5906282516425030e+01 -3.5658220508324156e+01 2.0249817209145519e+01  5.7267981540546657e+01 -3.2805544470285561e+01 2.4464925607640517e+01  5.7037967708663423e+01 -3.3500286244072115e+01 2.3535196530717890e+01  5.9990949149094966e+01 -3.8310130759032141e+01 2.1679248832808643e+01  6.1286660645452720e+01 -3.8814137540291085e+01 2.2473763705921773e+01  5.2079608165228379e+01 -2.9983594232595685e+01 2.2095717384429260e+01  5.2678872950380331e+01 -3.0852620567512371e+01 2.1827111740803044e+01  5.8489189477967578e+01 -3.5753874971614628e+01 2.2733024083102212e+01  5.8819538936156839e+01 -3.5076884161156322e+01 2.3743279277219749e+01  5.8458573802748333e+01 -3.5874209276395462e+01 2.2582718020903719e+01  5.9679728332937827e+01 -3.6144238784170398e+01 2.3534510991255409e+01  5.9638852937860911e+01 -3.6261252670622781e+01 2.3378527696918653e+01  6.0011642672413053e+01 -3.5421845382402843e+01 2.4590198038798025e+01  5.8871758180231602e+01 -3.4982817058582214e+01 2.3891835701858188e+01  5.9147489692901388e+01 -3.4129979815573513e+01 2.5014791850403508e+01  5.9143386210603531e+01 -3.4246232367881291e+01 2.4895598449918399e+01  6.0019401148097124e+01 -3.5301836766300902e+01 2.4717185907147801e+01  5.8884927026054335e+01 -3.4877484514774132e+01 2.4007272059987805e+01  6.5011512369075021e+01 -4.1146668970980485e+01 2.3868984968852470e+01  6.5624107596311561e+01 -4.0375281689926176e+01 2.5247984993012011e+01  6.5073367438673557e+01 -4.1365090510690891e+01 2.3707491889615252e+01  6.3556520139530562e+01 -4.0773157945719838e+01 2.2783697657114217e+01  6.4102647909408532e+01 -3.9855936503853513e+01 2.4249951086103469e+01  6.0319431120159528e+01 -3.4402355740019324e+01 2.5915888889946444e+01  6.1538771050755948e+01 -3.4789632004043987e+01 2.6747936068951319e+01  6.1240354242050138e+01 -3.5749678476963020e+01 2.5491227720813800e+01  6.0307008603823249e+01 -3.4515916212231005e+01 2.5791338520051131e+01  6.0552249333589295e+01 -3.3573580582165370e+01 2.6980547272131734e+01  5.4224350588644278e+01 -3.2049752692396474e+01 2.2175356582268392e+01  5.4305508835013903e+01 -3.2014765642867694e+01 2.2290320997014170e+01  5.3666774484488890e+01 -3.1115000974777718e+01 2.2549305723302879e+01  5.3394766267085949e+01 -3.1740545424432469e+01 2.1655111398506005e+01  5.3474939277497221e+01 -3.1711358818207515e+01 2.1764638037373572e+01  5.3739767206827871e+01 -3.1077577659231075e+01 2.2662263659661569e+01  4.8631536693483895e+01 -2.7514153280061699e+01 2.1144475250267263e+01  4.9562520445245489e+01 -2.7885310913903592e+01 2.1651010988810658e+01  4.9252857927664451e+01 -2.8345852806303263e+01 2.0878165476516582e+01  4.8815592594241920e+01 -2.7560235255068697e+01 2.1205898800358892e+01  4.9424673650733681e+01 -2.7836337295556064e+01 2.1585397108412437e+01  4.9110849713505324e+01 -2.8297903874804959e+01 2.0807904520957941e+01  4.9579150100546549e+01 -2.9109358115666243e+01 2.0477348004904339e+01  4.9901668160075296e+01 -2.8614625048988209e+01 2.1288198594665467e+01  5.0177016340705606e+01 -2.8124051478024995e+01 2.2058730038752451e+01  4.8939525390476618e+01 -2.7651577809106101e+01 2.1300656774249660e+01  5.2487680861448425e+01 -3.1439802991859366e+01 2.1046782936344197e+01  5.0418926210011072e+01 -3.1345291712553774e+01 1.9059498045412987e+01  5.0955166381283888e+01 -3.2232776152229647e+01 1.8709010193520839e+01  5.0198855303426967e+01 -3.1904725709115567e+01 1.8299719205814096e+01  5.0535040033497005e+01 -3.1363513936430014e+01 1.9169360684225314e+01  6.0892822599752925e+01 -3.6667579200020128e+01 2.4223640416041814e+01  5.7425777213415834e+01 -3.5292695414437802e+01 2.2133754745592473e+01  5.8143590656157194e+01 -3.6407452111854013e+01 2.1735618102016154e+01  5.8546422370345482e+01 -3.5663767264550010e+01 2.2879507741038136e+01  5.3575473202568993e+01 -3.1126509962147502e+01 2.2448423535919435e+01  5.3292863664800258e+01 -3.1752293888779953e+01 2.1539511368198049e+01  6.0883867756544781e+01 -3.6510844369788913e+01 2.4370179162539820e+01  5.9685374347820691e+01 -3.6025710440835297e+01 2.3659825523080997e+01  6.1773639184539036e+01 -3.7806739311608602e+01 2.3966044160454459e+01  6.0509252659704885e+01 -3.7239937636965202e+01 2.3267950020909016e+01  6.1317496804419982e+01 -3.8505335234436153e+01 2.2812434248466364e+01  5.4957103345296240e+01 -3.2958762623524258e+01 2.1996390886562779e+01  5.5183532011636551e+01 -3.2333076774694092e+01 2.2851572945395166e+01  5.6723892894932568e+01 -3.4234258757900307e+01 2.2489808461655304e+01  6.3142739807709923e+01 -3.8249445395169033e+01 2.4897296945132801e+01  6.2659144342216649e+01 -3.8996169703143060e+01 2.3659729478367773e+01  6.3543164120542151e+01 -4.0581100810947859e+01 2.2962259885700306e+01  5.1480311004271456e+01 -3.3109217611569690e+01 1.8357527267329367e+01  5.1225348059552616e+01 -3.3643413509353813e+01 1.7588549279590580e+01  5.1588563002359884e+01 -3.3106107380769345e+01 1.8480732435978116e+01  5.0717788475460097e+01 -3.2762484123313577e+01 1.7953174656370535e+01  5.1065057122730558e+01 -3.2229433245926479e+01 1.8834012401974650e+01  5.4012531108016077e+01 -3.2655921192388554e+01 2.1356141514213814e+01  5.4088796644240929e+01 -3.2621473640439547e+01 2.1467401270083730e+01  5.3177111116398741e+01 -3.2319207148188653e+01 2.0856737016809493e+01  5.3916428876846311e+01 -3.2690095654758302e+01 2.1226626207646369e+01  5.4890690305115875e+01 -3.3020401560732587e+01 2.1869219357044070e+01  5.3405762872150014e+01 -3.3823749350546493e+01 1.9582116258030961e+01  5.3971517177124120e+01 -3.4773807980745971e+01 1.9196907212778715e+01  5.1719655197056646e+01 -3.1135595176247637e+01 2.0583688070706621e+01  5.9390463563537665e+01 -3.3353104824569208e+01 2.6037802891935932e+01  5.1598843923747843e+01 -2.9160810575391395e+01 2.2437834650967172e+01  5.0814652225171713e+01 -2.8933917012814661e+01 2.1873902543684217e+01  5.1500735822871476e+01 -2.9156483749722110e+01 2.2344847180648909e+01  5.1718674825746241e+01 -2.8582579672683867e+01 2.3138292898816800e+01  5.1055945403419820e+01 -2.8393653694594050e+01 2.2657262642117505e+01  5.0398617689522361e+01 -2.8189875542845755e+01 2.2211276509650890e+01  5.0911875275558060e+01 -2.8946563182487246e+01 2.1963877582242581e+01  5.3884028949842609e+01 -3.4824086056359349e+01 1.9058939530093983e+01  5.2806380528063535e+01 -3.4438184435922139e+01 1.8372138753387812e+01  5.2919057850160677e+01 -3.4409376896377111e+01 1.8504486246805381e+01  5.3442936498181844e+01 -3.5347642618626836e+01 1.8088962989002685e+01  5.3765978930697997e+01 -3.4854678592888092e+01 1.8911561347957839e+01  5.4433989689349374e+01 -3.5801655849047613e+01 1.8629133371203444e+01  5.4070032118446974e+01 -3.6291064212078396e+01 1.7780754831245531e+01  5.3560149013246459e+01 -3.5324289768749495e+01 1.8232769453621128e+01  5.4522065328241808e+01 -3.5748164764224832e+01 1.8774221502063117e+01  5.2517044079033830e+01 -3.4930106472438304e+01 1.7572070866146795e+01  5.2200782903391094e+01 -3.5416009714830942e+01 1.6791648182614981e+01  5.2619050015981806e+01 -3.4906669844959502e+01 1.7711014724166052e+01  5.2009804228691394e+01 -3.4022117101895084e+01 1.7974324656362182e+01  5.1728281886730691e+01 -3.4516438804065359e+01 1.7207153446800469e+01  5.2111495859458593e+01 -3.3999815992301500e+01 1.8109356916443474e+01  6.2148151746090434e+01 -4.0026780719817417e+01 2.2124924527939292e+01  6.2956035567861989e+01 -4.1429545993247537e+01 2.1523985293248938e+01  6.3555194515729326e+01 -3.7425772524687531e+01 2.6129079558442111e+01  6.3151901365599713e+01 -3.8408694691437972e+01 2.4742419996869966e+01  6.2185392791293218e+01 -3.7043404252561714e+01 2.5141700028958176e+01  5.8810674397841360e+01 -3.7679335101590553e+01 2.1130176365292755e+01  5.8845750761599156e+01 -3.7559976882528041e+01 2.1286743751239218e+01  5.0537193305619518e+01 -2.9455034434364276e+01 2.1075801399920493e+01  4.9836540498099879e+01 -2.9182183952407133e+01 2.0657390445563884e+01  5.0642571603245734e+01 -2.9472237668442023e+01 2.1170127612816799e+01  5.0131545183322686e+01 -2.8682061645337399e+01 2.1447162327044968e+01  5.2417253544772691e+01 -2.9401619830555749e+01 2.3012644423547567e+01  5.1691416986554394e+01 -2.9178240659147214e+01 2.2513181840777392e+01  5.1901637153097930e+01 -2.8605567022676901e+01 2.3296428488509029e+01  5.2496419703993716e+01 -2.9389847368114381e+01 2.3105812669524077e+01  5.1813369153533181e+01 -2.8591762588146548e+01 2.3219924689489538e+01  5.2319902910162149e+01 -2.9391475372271554e+01 2.2927663730227575e+01  5.1147937956957797e+01 -2.8410832228755044e+01 2.2737052041711181e+01  5.8104422299651631e+01 -3.6516955463732081e+01 2.1590200212556805e+01  5.2843664110630499e+01 -3.2903684035148217e+01 1.9940295618738734e+01  5.2267235103848414e+01 -3.3505036580292511e+01 1.8761319939987381e+01  5.3203947512062847e+01 -3.3886822563667131e+01 1.9317230611738097e+01  6.4413905428642423e+01 -4.2062199528274540e+01 2.2348129558466272e+01  6.2667222397910457e+01 -3.9341501339928129e+01 2.3324933623798511e+01  5.3071673256763788e+01 -3.2329801045440469e+01 2.0739192470030538e+01  5.2174448335333757e+01 -3.2012192690877868e+01 2.0160823222051132e+01  5.2980943303901562e+01 -3.2366189400805311e+01 2.0614405136384899e+01  5.2273735299822931e+01 -3.2005527175849075e+01 2.0268259173562519e+01  5.1401364862301172e+01 -3.1689129493346179e+01 1.9711556299675898e+01  5.0022129853416018e+01 -2.8640454152558700e+01 2.1371740070337143e+01  5.0294133238153549e+01 -2.8150709902075874e+01 2.2134725647464975e+01  4.9667797477841447e+01 -2.7931948515197472e+01 2.1733343883393335e+01  4.9366227241444669e+01 -2.8394161387290481e+01 2.0967245373628991e+01  5.0946508627793733e+01 -2.8364386365136486e+01 2.2581272270372420e+01  5.0700491986500865e+01 -2.8905306198921011e+01 2.1793493273860431e+01  5.0411657672298418e+01 -2.9424581692394575e+01 2.0986421257281663e+01  6.4418313741690838e+01 -4.1877384843713145e+01 2.2538505911478719e+01  6.2649312656304126e+01 -3.9150579160043719e+01 2.3495750535080582e+01  6.2142426166879886e+01 -3.9845363495988053e+01 2.2294631426193543e+01  3.1142340046007551e+01 -1.4684441030955041e+01 1.4740016811278341e+01  4.7293338844495075e+01 -9.1709494299968330e+00 9.2491919164502274e+00  3.8763095320643664e+01 -1.7979624135571939e+01 1.7391726653275690e+01  3.1357487028169459e+01 -1.6314755918572839e+01 1.6290434262066128e+01  3.0964153457704061e+01 -1.4659909613254046e+01 1.5019473294195867e+01  5.0537055548010358e+01 -1.7086836926124334e+01 1.6763458755512467e+01  4.9088295114501697e+01 -9.3770288658236911e+00 9.4724414065732017e+00  3.8329875790451837