<?xml version="1.0"?>
<VTKFile type="UnstructuredGrid"  version="0.1"  >
<UnstructuredGrid>
<Piece  NumberOfPoints="5958" NumberOfCells="26766">
<Points>
<DataArray  type="Float64"  NumberOfComponents="3"  format="ascii">50 -11.437198 8.318083  50.66666525 -12.7953785 7.892423  50.66666525 -11.6395585 8.006679500000001  50 -11.806723 7.67894175  50 -12.593018 8.2038265  50 -13.748838 8.08957  50 -12.962543 7.56468525  50 -12.176248 7.0398005  50.66666525 -12.0090835 7.36753825  51.3333305 -11.841919 7.695276  50.66666525 -12.4258535 8.531564249999999  50.66666525 -13.5816735 8.417307749999999  51.3333305 -13.414509 8.7450455  51.3333305 -12.628214 8.22016075  50 -12.915298 5.761518  50.66666525 -12.7481335 6.08925575  50.66666525 -12.3786085 6.728396999999999  50 -13.332068 6.925544  50.66666525 -13.1649035 7.25328175  51.3333305 -12.211444 7.05613475  51.3333305 -12.580969 6.4169935  50 -12.545773 6.40065925  52.666661 -12.24664 7.072469  51.99999575 -12.4138045 6.74473125  51.99999575 -12.0442795 7.3838725  51.3333305 -12.997739 7.5810195  51.99999575 -12.8305745 7.90875725  55.333333 -16.889556 7.749571  54.6655915 -17.0534175 6.58795125  53.99999975 -16.67435275 7.0095885  53.99999975 -17.3567995 7.37254575  52.66666650000001 -17.824043 6.9955205  53.33225825 -17.520661 6.210926  52.66666650000001 -17.14159625 6.63256325  52.66666650000001 -16.4591495 6.269606  53.33225825 -16.83821425 5.84796875  53.99785 -17.217279 5.4263315  50 -18.75853 6.24147  50.66559175 -18.455148 5.4568755  50 -18.07608325 5.87851275  51.33333325 -17.60883975 6.255538  51.998925 -17.30545775 5.4709435  51.33333325 -16.926393 5.89258075  50 -17.3936365 5.5155555  50.66559175 -17.77270125 5.09391825  51.3311835 -18.151766 4.672281  51.33333325 -18.2912865 6.61849525  51.998925 -17.9879045 5.83390075  50 -16.028743 4.789641  50.66559175 -16.40780775 4.36800375  50.66559175 -17.0902545 4.730961  51.33333325 -16.24394625 5.5296235  51.998925 -16.623011 5.10798625  51.3311835 -17.46931925 4.30932375  51.3311835 -16.7868725 3.9463665  50 -16.71118975 5.15259825  52.662367 -17.545002 3.103092  51.99677525 -17.16593725 3.52472925  51.99677525 -17.848384 3.8876865  52.66451675 -17.00207575 4.686349  52.66451675 -17.6845225 5.04930625  53.3301085 -17.3811405 4.26471175  55.333333 -15.798382 5.056653  55.333333 -16.391901 4.6046595  55.333333 -15.940497 4.17420275  54.6655915 -16.235037 4.568262750000001  53.99785 -16.671692 4.0798725  54.6655915 -16.828556 4.11626925  54.6655915 -16.377152 3.6858125  55.333333 -16.082612 3.2917525  55.333333 -16.534016 3.72220925  55.333333 -16.98542 4.152666  55.333333 -18.172458 3.248679  55.333333 -17.578939 3.7006725  55.333333 -17.127535 3.27021575  54.6655915 -17.422075 3.66427575  55.333333 -13.835585 2.928583  55.333333 -14.46839925 2.57815025  55.333333 -14.9590985 3.11016775  54.6655915 -14.76293925 2.97221025  55.333333 -15.59191275 2.759735  55.333333 -15.1012135 2.2277175  55.333333 -14.32628425 3.4606005  53.99785 -15.6902935 3.0158375  54.6655915 -15.2536385 3.50422775  54.6655915 -15.88645275 3.153795  55.333333 -15.44979775 3.64218525  55.333333 -14.8169835 3.992618  54.6655915 -15.74433775 4.03624525  53.99785 -16.18099275 3.547855  55.333333 -15.30768275 4.5246355  48.949095 -27.666407 6.384499  47.6351315 -27.0011225 6.36374675  47.63504875 -27.53323625 5.8317155  48.4171645 -27.66631325 6.91652325  47.885234 -27.6662195 7.4485475  47.103201 -27.00102875 6.895771  47.10311824999999 -27.5331425 6.36373975  46.3210025 -27.4000655 5.278931999999999  46.32108525 -26.86795175 5.810963249999999  46.321168 -26.335838 6.3429945  47.88515125 -28.19833325 6.91651625  47.35322075 -28.1982395 7.4485405  46.8212075 -28.7302595 7.4485335  46.571105 -28.0651625 6.36373275  48.41708175 -28.198427 6.384492  47.8850685 -28.730447 6.384485  47.353138 -28.73035325 6.91650925  46.821042 -29.794487 6.384471  46.57102225 -28.59727625 5.831701499999999  46.82112475 -29.26237325 6.91650225  47.35305525 -29.262467 6.384478  46.821373 -27.666032 8.512596  46.5712705 -27.000935 7.42779525  46.57118775 -27.53304875 6.895764  47.3533035 -27.66612575 7.98057175  46.82129025 -28.19814575 7.98056475  44.694266 -27.665164 10.64057  44.4501625 -27.0013315 9.548506  43.92758975 -27.5223945 9.55001575  43.1539795 -26.3407465 9.505274  41.613693 -25.016329 8.369978  42.909876 -25.676914 8.413209999999999  42.38730325 -26.197977 8.41471975  43.1609135 -27.379625 8.4594615  43.68348625 -26.858562 8.457951749999999  44.206059 -26.337499 8.456441999999999  41.627561 -27.094086 6.278353  43.43938275 -26.1947295 7.36588775  42.14666675 -26.05358375 6.7997495  42.39423725 -27.2368555 7.368907249999999  42.6727065 -26.05196 6.2753335  43.717852 -25.009834 6.272314  43.19181225 -25.01145775 6.79673  42.913343 -26.19635325 7.890303749999999  42.6657725 -25.0130815 7.321146  41.620627 -26.0552075 7.324165499999999  42.13973275 -25.01470525 7.845561999999999  43.9619555 -25.6736665 7.364377999999999  43.43591575 -25.67529025 7.888793999999999  42.566276 -29.793175 10.64055  41.0451735 -27.3818605 10.572966  41.0445485 -28.4464805 9.508971499999999  42.0899845 -27.404752 9.505264  42.566901 -28.728555 11.7045445  42.567526 -27.663935 12.768539  42.0906095 -26.340132 10.5692585  40.568257 -26.0580575 8.373685500000001  39.522821 -27.099786 8.377393  41.037349 -26.3442045 11.6184465  40.5604325 -25.0204015 9.419166000000001  39.5149965 -26.06213 9.4228735  39.507172 -25.024474 10.468354  51.077355 -23.40996 8.512684  49.75452725 -23.29846325 7.94700875  49.75458725 -22.76635775 8.479054250000001  50.2865055 -22.7664655 7.947028  49.495656 -22.122971 7.381372000000001  48.4317595 -22.654861 7.913379  48.96367775 -22.65496875 7.38135275  48.96373775 -22.12286325 7.91339825  48.4318195 -22.1227555 8.4454245  48.4316995 -23.1869665 7.3813335  50.0134585 -23.94185 9.044691  50.54537675 -23.94195775 8.512664749999999  50.01339849999999 -24.4739555 8.5126455  48.69063075 -23.83035325 8.47901575  49.222549 -23.830461 7.9469895  49.48148025 -24.47384775 9.044671749999999  48.949562 -24.47374 9.576698  50.54543675 -23.40985225 9.04471025  50.0135185 -23.4097445 9.576736499999999  49.22260900000001 -23.2983555 8.479035  49.222669 -22.76625 9.011080499999998  49.48154025 -23.94174225 9.57671725  48.949682 -23.409529 10.640789  48.69069075 -23.29824775 9.011061250000001  48.69075075000001 -22.76614225 9.54310675  49.48160025 -23.40963675 10.10876275  48.94962200000001 -23.9416345 10.1087435  48.949442 -25.537951 8.512606999999999  48.69057075 -24.36245875 7.94697025  48.949502 -25.0058455 9.0446525  49.48142025 -25.00595325 8.51262625  47.913957 -20.835982 6.25006  48.17282825 -22.01147425 6.815696750000001  48.17288825 -21.47936875 7.34774225  48.7048065 -21.4794765 6.815716  55.333333 -12.920527 5.74978  54.66660475 -13.05301 5.404498500000001  54.66660475 -13.77247375 5.23121675  54.666665 -13.471519 5.907170499999999  53.999997 -14.022511 6.064560999999999  53.9998765 -13.90495675 4.88593525  53.99993675 -13.604002 5.561889  53.99993675 -14.32346575 5.38860725  53.9998765 -14.6244205 4.7126535  53.9998765 -13.185493 5.059217  55.333333 -13.63999075 5.57649825  54.666665 -14.19098275 5.73388875  55.333333 -14.3594545 5.4032165  54.66660475 -14.4919375 5.057935000000001  54.666665 -12.75205525 6.08045225  53.999997 -13.30304725 6.23784275  53.999997 -12.5835835 6.4111245  53.99993675 -12.88453825 5.73517075  54.66660475 -15.21140125 4.88465325  55.333333 -15.07891825 5.22993475  54.666665 -14.9104465 5.560606999999999  52.66660075 -12.54759475 6.39651525  53.333329 -12.41511175 6.74179675  53.333329 -13.1345755 6.568515  53.33326875 -13.43553025 5.89256125  53.33326875 -12.7160665 6.065843  52.6665405 -12.8485495 5.720561500000001  52.66642 -13.450459 4.368654  52.66648025 -13.14950425 5.044607750000001  53.3332085 -13.01702125 5.38988925  53.3332085 -13.736485 5.2166075  53.33314825 -13.317976 4.7139355  53.33314825 -14.03743975 4.540653750000001  50 -16.667382 8.332618  50 -16.50772225 7.44687375  50.66666525 -15.5621965 8.01758075  50 -15.729361 7.689843  50 -14.79134 7.047067999999999  50.66666525 -15.40253675 7.1318365  50 -15.56970125 6.80409875  50.66666525 -14.6241755 7.37480575  51.3333305 -14.457011 7.7025435  50 -16.3480625 6.5611295  50.66666525 -13.6861545 6.73203075  50.66666525 -13.52649475 5.8462865  51.3333305 -13.51899 7.059768500000001  51.3333305 -13.35933025 6.17402425  51.3333305 -14.1376915 5.931055  51.3333305 -14.29735125 6.81679925  50 -13.69365925 5.518548749999999  50 -14.4720205 5.275579499999999  50.66666525 -14.46451575 6.4890615  50.66666525 -14.304856 5.60331725  50 -13.853319 6.404292999999999  50 -14.63168025 6.161323749999999  50.66666525 -15.242877 6.24609225  50.66666525 -15.08321725 5.360348  50 -15.25038175 5.032610249999999  50 -15.4100415 5.9183545  50 -16.18840275 5.67538525  51.99999575 -13.3518255 7.387506249999999  51.99999575 -13.19216575 6.501761999999999  48.950037 -21.280955 12.769008  47.63072475 -21.18343575 12.18583925  48.16258925 -20.65153425 12.18587625  48.1637885 -21.17184375 11.66436775  47.37754 -21.0627325 10.5597275  46.843277 -20.554015 11.6027075  46.84447625 -21.0743245 11.081199  47.37634075 -20.542423 11.081236  47.3751415 -20.0221135 11.6027445  46.3114125 -21.0859165 11.6026705  48.4181725 -21.8128565 12.768971  47.886308 -22.344758 12.768934  47.09886025 -21.71533725 12.18580225  47.631924 -21.70374525 11.66433075  46.822579 -23.408561 12.76886  46.56699575 -22.24723875 12.18576525  46.568195 -22.76754825 11.66425675  47.1000595 -22.23564675 11.66429375  46.8456755 -21.594634 10.5596905  46.313811 -22.1265355 10.5596535  46.31261175 -21.606226 11.081162  47.3544435 -22.8766595 12.768897  45.805043 -20.84451 8.350447000000001  45.80384375 -20.3242005 8.871955500000002  46.05822775 -20.96521325 9.976558750000001  46.5912915 -20.95362125 9.455087250000002  46.0570285 -20.44490375 10.49806725  46.59009225 -20.43331175 9.976595750000001  45.8026445 -19.803891 9.393464000000002  46.05942
[...]
<PointData  Vectors="u"> 
<DataArray  type="Float64"  Name="u"  NumberOfComponents="3" format="ascii">-3.6137080981083203e-01 1.7900714028220008e+02 -1.3181174153594205e+02  3.4289869343072947e+00 1.6941314795398264e+02 -1.0409095524923609e+02  -5.3911006061339917e-01 1.8406583717661886e+02 -1.1770053390935024e+02  5.4341542801342406e+00 1.7795394372704007e+02 -9.7218356689356980e+01  -9.2077224193735108e-01 1.6842924163356875e+02 -1.0976821224777431e+02  3.1616411617196087e+00 1.6493880550939389e+02 -1.0206174581167299e+02  -1.5872431325410101e+00 1.7200028537954898e+02 -1.0131972860298153e+02  3.9147268345286781e+00 1.7053354820919608e+02 -9.9419888042140755e+01  8.6599204197552861e+00 1.7871851990096920e+02 -9.9154525634049563e+01  5.7063149215172448e-01 1.7751817152896069e+02 -1.1574888421944610e+02  1.6258917525094878e+00 1.6632900808842805e+02 -1.1525128882737175e+02  1.0420949765558962e+01 1.6185591139474855e+02 -1.0479570465245037e+02  1.5584818871599600e+01 1.5688087770054824e+02 -1.0499736029065669e+02  5.3210646848945009e+00 1.6488570372700255e+02 -1.0878608399783428e+02  -4.8550064207247196e-01 1.9732198913648807e+02 -9.0145986319514606e+01  2.3565236589806196e-01 1.8963822987292357e+02 -1.0012391841864675e+02  5.7023220198917812e+00 1.7450818232029468e+02 -1.0113512429835288e+02  5.6039946610149094e-01 1.7245626741780839e+02 -9.4127342783510912e+01  2.4076442013191248e+00 1.7160098298465377e+02 -9.7275475529598651e+01  8.5823301395565554e+00 1.7847943263779831e+02 -1.0075699969798681e+02  1.2244800467699835e+00 1.8705555672065290e+02 -9.6679601914221266e+01  5.4368410981791992e+00 1.7047002016418398e+02 -1.0153626336564147e+02  3.6056686980515634e-01 1.7867069518044869e+02 -1.0191537620711928e+02  2.7820777932651795e+00 1.8817488169025600e+02 -9.5407086389900556e+01  1.0777233228154298e-01 1.7509807711375677e+02 -1.1576769889458565e+02  5.5679856174835054e+00 1.6858408189177081e+02 -9.9704856109104981e+01  5.8775192794570597e+00 1.6284728109598709e+02 -1.0286942573570711e+02  5.4683107389144581e-01 1.1493171048019433e+02 -3.8688275857123408e+01  7.4341329912183278e+00 1.2887149808813581e+02 -4.0296451143831021e+01  1.4419790785464274e+01 1.3032493031464767e+02 -4.6486982284864958e+01  2.0630149284238740e+01 1.1895019558600281e+02 -3.9108483534440253e+01  3.7945595809143271e+01 1.2786016396500472e+02 -4.5392880215966194e+01  2.0340729246794986e+01 1.3375268107398284e+02 -4.1747912052993392e+01  2.8378305997794165e+01 1.3822942825113421e+02 -5.1106796803714651e+01  1.9039677600173615e+01 1.4729145454778592e+02 -5.5350809334430160e+01  1.4891464048726736e+01 1.4340698995622731e+02 -4.6660695218339328e+01  1.0318235982456242e+01 1.4051490040252853e+02 -3.9206226675784009e+01  1.0416804310738901e+02 1.8132606579973381e+02 -1.0154500541247859e+02  2.1776010646084732e+01 1.6414235304946598e+02 -6.8389500829565250e+01  3.6304622783772502e+00 1.8296250148361145e+02 -8.6900600079692396e+01  2.6417443822449517e+01 1.5244152946189925e+02 -6.2895158978336489e+01  1.9386781998671296e+01 1.5044600190609967e+02 -5.0377389626365407e+01  1.9773915362422709e+01 1.5838834383137427e+02 -6.3092700095031795e+01  3.8202201633669581e+00 1.6512598195794905e+02 -6.7508007633727757e+01  1.2140280752756683e+01 1.6067259051043865e+02 -5.9325502456623127e+01  1.8306342858859189e+01 1.5365764845226724e+02 -4.7864304844606757e+01  4.7758112678230752e+01 1.4362802356329641e+02 -5.9591358709765245e+01  3.0296677047089055e+01 1.4328187693057973e+02 -4.9731583387947609e+01  -5.9137982541076800e-02 1.6887350145390184e+02 -5.6516237685845240e+01  3.4603059481542506e+00 1.6606410200091625e+02 -4.9548514622667795e+01  5.8668985823900872e+00 1.6184349118478372e+02 -5.2684904456763732e+01  1.0669622658034038e+01 1.6175330977813880e+02 -6.0080921701235432e+01  1.1892892280054323e+01 1.5717655211352772e+02 -5.1252561716689421e+01  1.0536411801568748e+01 1.5740205002802895e+02 -4.4439139990099257e+01  6.3916988952135600e+00 1.6286691518952819e+02 -4.2335551179722067e+01  3.2513857354473652e-01 1.6464268446647981e+02 -5.9568096861754036e+01  7.2362035047837967e+00 1.5480095731331278e+02 -2.8157408060803672e+01  7.4743494568344664e+00 1.5882983898556822e+02 -3.5099766578817658e+01  1.1737979810097293e+01 1.5237304321093711e+02 -3.6137905273358591e+01  1.1761585009634761e+01 1.5270012221811695e+02 -4.2237406726788763e+01  1.7099037809749028e+01 1.4534907566364990e+02 -4.1260580566612482e+01  9.8202362022800411e+00 1.4868901995862589e+02 -3.4611951082838750e+01  -1.3776118283937180e-01 1.5536368281595207e+02 -4.6278751300901561e+01  2.3825759851959623e-02 1.5302969955953643e+02 -3.9414628649161287e+01  3.7924169319133254e-03 1.6056573848351334e+02 -3.9705342170762272e+01  2.6759634514480850e+00 1.5524940854710511e+02 -4.0725113563360189e+01  5.0524961843865155e+00 1.5500834605634194e+02 -3.5676644308611110e+01  3.0502569886272553e+00 1.5221904336162038e+02 -3.3968918270917378e+01  2.0168805980332580e+00 1.5931832184897610e+02 -3.3718720316839899e+01  -6.0142513336762328e-02 1.6419251443972476e+02 -3.1956548262389397e+01  -1.0686828532701340e-01 1.5720917494035353e+02 -3.2802542724214753e+01  -1.2779594815636219e-01 1.4993344642768469e+02 -3.2778521799739210e+01  2.2961979499135813e-02 1.4290415481740797e+02 -2.1318506366486083e+01  -3.6194378888521797e-02 1.4660970574552616e+02 -2.6812717018132364e+01  -2.7689909741903381e-02 1.5342655200658632e+02 -2.6528260157471472e+01  2.9740162734207209e+00 1.4871915361909396e+02 -2.7858666896333567e+01  -2.0749334389575053e-01 2.0238559423521869e+02 -4.1228189759092146e+01  6.4561975831814189e-01 1.8737678183457371e+02 -2.9596766728687932e+01  -4.8698706643246165e-01 1.7772507714392938e+02 -3.6330339984427759e+01  1.2203489699986978e+00 1.8138170927281593e+02 -3.5589104573099895e+01  -3.5001272609713439e-02 1.7231689104900255e+02 -2.9178352878183748e+01  9.9121513526378949e-02 1.7976087076086824e+02 -2.5567439315511500e+01  1.1323103873781606e+00 1.8330199426783935e+02 -4.6968589744347426e+01  2.2011202848395057e+00 1.7079237298823909e+02 -3.2049503063944393e+01  1.2159658420198836e+00 1.7259439080776710e+02 -3.8488303145184936e+01  1.3234027918203528e+00 1.6724916423938453e+02 -3.1934669296867401e+01  -1.2265393986751370e-01 1.6915491799650840e+02 -3.8824635160048736e+01  1.2731051659166698e-01 1.7346933320320557e+02 -4.5894518747431015e+01  1.7092592347919384e+00 1.6381694822038531e+02 -4.0216469856617259e+01  3.3369524689486325e+00 1.6295068132366794e+02 -3.4388474337314427e+01  -4.3793667223802270e-02 1.6450573999223562e+02 -4.6839728196156940e+01  8.4529210617882029e+01 7.6416406696631157e+01 -8.0186598343470052e+00  8.5032772142054469e+01 7.5417208442568224e+01 -1.0544998510212141e+01  8.3540234521177950e+01 7.5194930520151715e+01 -9.1495767060908495e+00  8.5073565982933630e+01 7.5255942313129779e+01 -9.8589254586488142e+00  8.5426398933364922e+01 7.3913476575725852e+01 -1.1461718891850987e+01  8.5377789234512520e+01 7.3945921502215214e+01 -1.2082561386584219e+01  8.3909355765293000e+01 7.3842433203904918e+01 -1.0628582148410837e+01  8.2697480660330712e+01 7.3644069073668859e+01 -9.6984357765666900e+00  8.4145315050556292e+01 7.3777129765602538e+01 -1.1090426012134865e+01  8.5606299522625534e+01 7.3837829110869023e+01 -1.2566896778878732e+01  8.3982914455813514e+01 7.3879500635026801e+01 -1.0078849717778290e+01  8.4149007439137364e+01 7.2534580955366209e+01 -1.1573391681257123e+01  8.2869418309549204e+01 7.1206257089288854e+01 -1.1628650344052391e+01  8.2742515705062871e+01 7.2403306514985530e+01 -1.0665712706128424e+01  8.3533101350523623e+01 7.5100438652159994e+01 -8.4796682006477422e+00  8.2498217861816485e+01 7.3692701606078899e+01 -8.7663620504312760e+00  8.2740818442178053e+01 7.2478066104636312e+01 -1.0226689381848027e+01  8.0268169088017899e+01 7.1153817749954115e+01 -9.0986334209652160e+00  8.1376693838252393e+01 7.2301799257107007e+01 -9.3691109804255159e+00  8.1551035403004704e+01 7.1232470768633803e+01 -1.0326437154347030e+01  8.1379541026983631e+01 7.2403899696348887e+01 -8.9653915421289998e+00  8.5564699627605577e+01 7.1039751032251459e+01 -1.4499606827008204e+01  8.5524976255075373e+01 7.2406486258742760e+01 -1.3533499337970770e+01  8.4094031583392351e+01 7.2430447353744199e+01 -1.2046156755507731e+01  8.5558786954994261e+01 7.2504907032767392e+01 -1.3049851657665386e+01  8.4208748918002513e+01 7.1186941194478692e+01 -1.3031672085259814e+01  8.4491942875802280e+01 6.4953748080240757e+01 -1.9551183791378769e+01  8.4808560484231336e+01 6.6236099892037430e+01 -1.8651331106686865e+01  8.3341249775145030e+01 6.5117543593814247e+01 -1.8264597422546593e+01  8.4319446607944698e+01 6.4442708224226180e+01 -1.9948532461573866e+01  8.4168488971127189e+01 6.3844843492036496e+01 -2.0326788519811259e+01  8.4704568776814099e+01 6.5681738246256799e+01 -1.9088045346860667e+01  8.3219393977042557e+01 6.4583641622244755e+01 -1.8674265042252106e+01  8.2234817401972279e+01 6.5222027520004019e+01 -1.7068915982015419e+01  8.3641604944012727e+01 6.6337506310878894e+01 -1.7405631741256336e+01  8.5105633645505293e+01 6.7500766282872149e+01 -1.7756660805453887e+01  8.0040830343731741e+01 6.5256463853446476e+01 -1.4785581622096796e+01  8.3900828778295406e+01 6.7525048392559853e+01 -1.6475062293886435e+01  8.2440352233020377e+01 6.6072789569971050e+01 -1.6361758239638725e+01  8.1136876137770486e+01 6.5268965231022548e+01 -1.5897314197494891e+01  8.2725379212550479e+01 6.7494592948927988e+01 -1.5232277715156970e+01  8.5730108501928783e+01 6.9999523762679544e+01 -1.5726100533632478e+01  8.5412534220893377e+01 6.8449971062972864e+01 -1.6969495499735114e+01  8.3591348577765743e+01 6.6045446390011605e+01 -1.7606564171458963e+01  8.5046194942394351e+01 6.6899814387606511e+01 -1.8149702857202691e+01  8.2121708530444934e+01 6.4697255408794135e+01 -1.7444097106494901e+01  8.4646849718841040e+01 6.5366499264078897e+01 -1.9272492545190683e+01  8.5425006305950546e+01 6.8786440924453984e+01 -1.6793785923231564e+01  8.5089094380369772e+01 6.7220805790953861e+01 -1.7964476565215772e+01  7.8930948406583013e+01 6.1041243274506030e+01 -1.7889269914253202e+01  8.0556567763276163e+01 5.9666694662730507e+01 -2.0895863154697818e+01  7.8805447649484535e+01 6.0572735520879355e+01 -1.8242406602226524e+01  8.1435687940854081e+01 6.2411102144490691e+01 -1.9055159274174258e+01  8.0707979790234958e+01 6.0147347312342596e+01 -2.0564251362166466e+01  8.2419922042607013e+01 5.9073368005397299e+01 -2.3345762870030722e+01  8.3347003723213149e+01 6.1434123231791595e+01 -2.1949570719996458e+01  8.1294537202979186e+01 6.1884624376524229e+01 -1.9426984809069417e+01  7.8702014433717423e+01 6.0108865591071748e+01 -1.8589508989259198e+01  8.2161811876893850e+01 5.8561408199345856e+01 -2.3613879521734479e+01  8.3116931912101165e+01 6.0920788024668227e+01 -2.2195960075210973e+01  8.0352801044917513e+01 5.9201585386847817e+01 -2.1159750475328678e+01  8.1935056616462930e+01 5.8055727077768410e+01 -2.3875839598769197e+01  9.3876896214726614e+01 8.1404256672945593e+01 -1.2301647132022614e+01  9.3335697499964169e+01 8.3156893612198687e+01 -1.6621981647129900e+01  9.5203539610903093e+01 8.3113954714306217e+01 -1.9117286490938259e+01  9.2730355141301800e+01 8.5973172754957176e+01 -1.7390946669291516e+01  9.5300015963254779e+01 8.9453169571461032e+01 -2.1290248344002460e+01  9.6442103052214179e+01 8.2175921242308448e+01 -2.0465450854599716e+01  9.5386311358777405e+01 8.5633103477346339e+01 -1.9483766420861468e+01  9.7468905754951706e+01 8.5420118386641420e+01 -2.2091641361832743e+01  9.8194915788327663e+01 8.1768146070603294e+01 -2.2954463486438023e+01  9.4417385032052451e+01 8.2358336544247237e+01 -1.8062927112367547e+01  9.5847313192190143e+01 7.9351095097887665e+01 -1.6264527195438585e+01  9.4022566736378366e+01 8.0873952384507106e+01 -1.3358692306214810e+01  9.3604823868185349e+01 7.9468968679877520e+01 -1.3949997349511300e+01  9.4148269785729923e+01 7.8943613244586203e+01 -1.8118164473148038e+01  9.3065888844784169e+01 8.1295110236201907e+01 -1.6428660162319339e+01  9.4480475042159753e+01 7.7796954671891669e+01 -1.6464642005937542e+01  9.4917982525250707e+01 7.6083693087816712e+01 -1.8577036520789296e+01  9.6024527829190518e+01 8.0356540635839352e+01 -1.5945820489077642e+01  9.7444039341757460e+01 7.8715964530313897e+01 -1.8488557487275887e+01  9.4982675255929664e+01 8.0907700775531325e+01 -1.8697063409725313e+01  9.6831942342452294e+01 8.0703795239450997e+01 -2.1184924150894098e+01  9.6355708534835458e+01 7.7500976335622042e+01 -1.8504631946589292e+01  9.8230377040697263e+01 7.4958322947625163e+01 -2.3121681267285542e+01  9.5786159933883141e+01 7.8508235661712234e+01 -2.0407780663840516e+01  9.7624424337964783e+01 7.8044528351420666e+01 -2.2796668779463353e+01  9.8051582234588324e+01 7.6946292270635453e+01 -2.1102849674868487e+01  9.6636125433533223e+01 7.5752376531825874e+01 -2.0919068444705793e+01  9.1353192113658238e+01 7.6703593283461629e+01 -1.4522363913120342e+01  9.2194879710348260e+01 7.9081740568314004e+01 -1.5979919588371448e+01  9.3174029542443762e+01 7.6627298312502546e+01 -1.6581609417095596e+01  9.2589725288708749e+01 7.8207383904259132e+01 -1.4297148255124146e+01  1.0794567526752209e+02 8.7565088157505471e+01 -2.0501299159426242e+01  9.9391366949844397e+01 8.6046946438491887e+01 -2.0361651745483794e+01  1.0161593126275889e+02 8.5824385762246010e+01 -2.3023392250119429e+01  1.0205998175724163e+02 9.0366887551864323e+01 -2.2605160149873775e+01  1.8219538026221813e-01 1.8475167012032722e+02 -8.1757211599649693e+01  8.0347304633231620e-01 1.9187749994083759e+02 -6.8998178952194820e+01  -7.3455669047909133e-01 1.7516919049138932e+02 -6.2735855909173132e+01  2.6142543675184622e+00 1.7301546109231040e+02 -7.4863834049674580e+01  3.4817826493267874e+00 1.6535413491247587e+02 -7.0106913194501047e+01  3.8873716943513309e-01 1.7861959550520163e+02 -6.1243115766429916e+01  2.3353301283939563e+00 1.7474581891461460e+02 -7.1838765264123950e+01  2.5255488544439761e+00 1.6897992504922675e+02 -6.2245172614113116e+01  2.2943027250726447e+00 1.7180982528446634e+02 -5.4520616474298592e+01  -8.5257528955295536e-02 1.8754480813928382e+02 -7.2304303585405876e+01  2.4155122303615806e-01 1.7465592469756169e+02 -6.6010653959435729e+01  1.5301938610607526e+00 1.6614972790020406e+02 -6.5185522743416954e+01  6.5296783179874737e-02 1.6689759113570173e+02 -6.0723689736694929e+01  9.8001217565725995e-01 1.6858663161437465e+02 -5.7142906224271819e+01  7.9569456551963025e-01 1.7739474564030274e+02 -9.3530551962170222e+01  3.6712279779259074e+00 1.7015582846220593e+02 -7.7988908245564275e+01  -2.9709451915598206e-01 1.7691327566425372e+02 -9.0359106026688480e+01  8.0587036176446514e+00 1.7714399555701613e+02 -7.5757159707270603e+01  1.7498436351971478e+00 1.6286382980213978e+02 -5.0195101150703493e+01  -6.9788181750070379e-03 1.6123392493594912e+02 -5.3378236054464992e+01  2.0788769524974944e+00 1.6039943052531785e+02 -5.7290767191698301e+01  5.6306973597469123e-01 1.7343626802436350e+02 -7.3541951318652693e+01  -9.0561131525186167e-01 1.8303363597751354e+02 -9.0561335777560217e+01  4.6906843114003927e+00 1.7042831716754736e+02 -8.1101313628706151e+01  3.8697619567099317e+00 1.7149326959318168e+02 -7.5061262548180977e+01  8.8359775186509282e+00 1.7468009144842426e+02 -7.4067156268531548e+01  -5.3790886258603787e-02 1.7130313620626242e+02 -7.7475430019216404e+01  4.1722291231886760e-01 1.9731426912536494e+02 -6.4687319662807312e+01  -5.4857247388303521e-01 1.7380226460102460e+02 -8.1704738181454317e+01  7.5296782254558359e+00 1.7435710633339971e+02 -7.8973159770076862e+01  3.5138331132594818e+00 1.7692098765955524e+02 -7.0195332000913865e+01  -2.6685619048625195e+00 1.9278716885091919e+02 -7.7665359926083411e+01  -5.3069578358225977e-01 1.8273517335657220e+02 -5.8744440003040438e+01  1.0543422500886156e+02 1.8564411155634104e+02 -1.2605385105372368e+02  -1.0354545170157518e+01 1.9328810440242495e+02 -1.2094786653073079e+02  1.1791960142016544e+01 1.6740607105529395e+02 -9.9057489957299651e+01  -8.8567007954001085e+00 1.7237971430238306e+02 -9.9202449456295781e+01  1.8405842192837780e+00 1.6732352984239137e+02 -8.6296577934700011e+01  1.1305009643546693e+01 1.6595541097514450e+02 -8.5393975080250740e+01  1.9128001420699051e-01 1.6670589691098306e+02 -8.3420143070235966e+01  9.9352605975501884e+00 1.6425411032689482e+02 -8.8506428569543942e+01  1.4903472365710494e+01 1.6048236435827567e+02 -8.9730004860440019e+01  6.8166435177752129e+00 1.6836832012289813e+02 -8.1487418590266870e+01  2.0088528757630306e+00 1.7369305167801855e+02 -8.8836785756570961e+01  -4.3832947725789900e-01 1.8493757675949010e+02 -7.9828423222471358e+01  4.8019397091243095e+00 1.6981712040896323e+02 -9.0575335846372923e+01  5.6898222484944072e-01 1.7964367411942661e+02 -8.3698916754059653e+01  3.7535136218061540e+00 1.7441800665837704e+02 -7.5412689923285001e+01  6.9201805048255398e+00 1.6749013265599172e+02 -8.2762404034643367e+01  -6.3222316790773270e-01 1.8549474126958083e+02 -7.2767813680661405e+01  1.1293001666602731e-01 1.7741511752709314e+02 -6.6895021321737886e+01  3.0768477224332433e+00 1.7090340361462648e+02 -8.1085105530077257e+01  2.4463843862287309e+00 1.7657711572728749e+02 -7.1069390628872526e+01  9.5349235863135651e-02 1.7488255334091681e+02 -8.4071263157546724e+01  1.1846946852209313e-01 1.7258028287762815e+02 -7.6619472087253996e+01  4.7317336929654088e+00 1.6772323324084260e+02 -7.4674267348160356e+01  3.0053235825263314e+00 1.7189962153933593e+02 -6.4575223526273163e+01  -9.7730905343680230e-02 1.7234092207542238e+02 -6.1091408043923366e+01  -8.0930739571263410e-01 1.6781262157352643e+02 -7.0019099169897117e+01  -1.8144703152477656e-01 1.6568983671815781e+02 -6.6064626099852774e+01  6.5730509802758013e+00 1.6567513885989533e+02 -9.1994416450379788e+01  2.4231550667081789e-01 1.7575373010997353e+02 -8.3051201525439780e+01  1.0415283636202955e+02 7.0704971598239112e+01 -3.3278496865137164e+01  1.0169492968076784e+02 7.0050465012150269e+01 -3.3140458002384037e+01  1.0360706523381857e+02 7.1531391214129940e+01 -3.4627863501412932e+01  1.0223029594243097e+02 7.2610802533265741e+01 -3.1889466846918690e+01  1.0139015251530472e+02 7.4109709093742083e+01 -3.0279621239394846e+01  1.0189632379728390e+02 7.0166204450009445e+01 -3.3758185757342197e+01  1.0067146700771387e+02 7.1328178653980942e+01 -3.1320072309347644e+01  1.0271098418020195e+02 7.3050685728485561e+01 -3.2826329690697186e+01  1.0405502386112673e+02 7.1811472535944262e+01 -3.5456475314897922e+01  9.9733375919189982e+01 6.8720951087718461e+01 -3.2273186758388526e+01  1.0217117517703879e+02 6.9896521579460313e+01 -3.2346784569840786e+01  1.0013202054006877e+02 6.8772527901708827e+01 -3.1287337891729027e+01  9.9720545082402310e+01 6.8860323606118442e+01 -3.1896650654376465e+01  1.0046998312014595e+02 7.1290505976245214e+01 -3.0712276288260796e+01  9.6052861097448414e+01 6.6657008337948298e+01 -2.9359383388293669e+01  9.7704101662282753e+01 6.7621594970870817e+01 -3.0724294437300774e+01  9.6560540415835987e+01 6.8612585816780410e+01 -2.8561043364921488e+01  9.8481996461701641e+01 6.9876827098632461e+01 -2.9580027515257900e+01  9.9353595158049146e+01 7.2315740824306005e+01 -2.8933963526435875e+01  9.7278983055759497e+01 7.0698020123459969e+01 -2.7772143315165486e+01  9.8555759503223101e+01 6.9795801038735320e+01 -2.9999842664311803e+01  9.8078657248323438e+01 6.7740675345919144e+01 -3.0315061490184767e+01  1.0000690458247018e+02 7.4579547129261627e+01 -2.5391315499477933e+01  1.0153902774853506e+02 7.3785766845775228e+01 -2.7751475339887389e+01  9.9873861528376608e+01 7.1984083785458097e+01 -2.9150699559139241e+01  1.0075156852098061e+02 7.4760205578996491e+01 -2.8083946223653584e+01  1.0113813993103705e+02 7.0959893534170774e+01 -3.1510327194463198e+01  1.0236060293102663e+02 7.3769759040656623e+01 -3.0496229376426360e+01  1.0301011349917162e+02 7.2810916186171539e+01 -3.0170949689315048e+01  9.8474757668153401e+01 7.2824219392089773e+01 -2.6855999