<?xml version="1.0"?>
<VTKFile type="UnstructuredGrid"  version="0.1"  >
<UnstructuredGrid>
<Piece  NumberOfPoints="6292" NumberOfCells="26452">
<Points>
<DataArray  type="Float64"  NumberOfComponents="3"  format="ascii">48.948731 29.795093 4.256176  48.169646 29.11781625 3.7125375  48.69104 29.116828 3.192132  48.16877650000001 29.6390915 3.192132  47.388822 29.48309 2.128088  47.3896915 28.96181475 2.6484935  47.9110855 28.9608265 2.128088  48.433349 28.438563 2.128088  47.91195500000001 28.43955125 2.6484935  47.39056100000001 28.4405395 3.168899  45.828913 29.171087 0  45.8297825 28.64981175 0.5204055  46.3511765 28.6488235 0  46.6088675 29.3270885 1.064044  46.609737 28.80581325 1.5844495  47.131131 28.804825 1.064044  46.87344 28.12656 0  46.352046 28.12754825 0.5204055  45.830652 28.1285365 1.040811  47.917967 27.082033 0  47.396573 27.08302125 0.5204055  47.3957035 27.6042965 0  47.6533945 28.2825615 1.064044  47.1320005 28.28354975 1.5844495  46.8743095 27.60528475 0.5204055  46.875179 27.0840095 1.040811  48.175658 27.760298 1.064044  47.654264 27.76128625 1.5844495  45.832391 27.085986 2.081622  46.353785 27.08499775 1.5612165  46.3529155 27.606273 1.040811  46.6106065 28.284538 2.104855  47.13287 27.7622745 2.104855  45.8315215 27.60726125 1.5612165  46.611476 27.76326275 2.6252605  51.076894 23.410431 8.512675  50.2890735 22.76458325 7.946343499999999  50.28783975 23.285263 7.426897  50.8076705 22.76552625 7.42680325  50.53844700000001 22.1206215 6.3409315  49.50001925 22.63941525 6.8605655  50.01985000000001 22.1196785 6.86047175  50.01861625 22.64035825 6.34102525  49.4987855 23.160095 6.341119  49.50125300000001 22.1187355 7.380012  50 20.830812 4.169188  48.96157225 21.34960575 4.688822  49.481403 20.829869 4.68872825  49.74939275 21.9954535 5.2551535  48.710965 22.51424725 5.7747875  49.23079575 21.9945105 5.77469375  48.962806 20.828926 5.2082685  48.44297525 21.34866275 5.20836225  47.9231445 21.8683995 5.208456  49.48016925 21.35054875 4.16928175  49.229562 22.51519025 5.25524725  48.9603385 21.8702855 4.1693755  48.4417415 21.8693425 4.68891575  50.2692235 21.47571675 5.25505975  49.7506265 21.47477375 5.7746  47.920677 22.909759 4.169563  47.92191075 22.38907925 4.6890095  48.44050774999999 22.39002225 4.169469250000001  48.70973125 23.034927 5.255341  47.925612 20.82704 6.247349  47.92437825 21.34771975 5.7279025  48.444209 20.827983 5.727808749999999  48.71219875 21.9935675 6.294233999999999  49.2320295 21.47383075 6.29414025  48.7134325 21.47288775 6.8136805  48.948726 25.538809 8.512464  48.170117 24.34954725 8.48033525  48.17009950000001 24.88157375 7.94832575  48.6929475 24.36086675 7.946185249999999  48.437169 23.1829245 7.3799065  47.3914905 23.692312 7.916196999999999  47.9143385 23.171605 7.914056499999999  47.914321 23.7036315 7.382047  47.391473 24.2243385 7.384187499999999  47.391508 23.1602855 8.4482065  48.94874350000001 25.0067825 9.044473499999999  48.692965 23.82884025 8.47819475  48.948761 24.474756 9.576483  48.1701345 23.81752075 9.01234475  48.948796 23.410703 10.640502  48.170152 23.28549425 9.54435425  48.693 22.76478725 9.542213749999998  48.6929825 23.29681375 9.010204249999999  48.4371865 22.650898 7.911916  48.437204 22.1188715 8.443925499999999  47.914356 22.6395785 8.446065999999998  48.9487785 23.9427295 10.1084925  47.65856 21.99366275 7.34777775  47.402764 21.347747 6.2494895  48.1813905 22.00498225 6.81362775  47.135712 22.51436975 7.34991825  47.6585425 22.52568925 6.81576825  46.879916 21.868454 6.25163  48.181408 21.47295575 7.345637249999999  45.83422 22.909868 6.255911  46.612864 23.03507675 7.352058749999999  46.357068 22.389161 6.2537705  47.1356945 23.04639625 6.81790875  46.6128465 23.56710325 6.82004925  44.697439 34.053615 -4.248946  44.462237 33.35105350000001 -3.1867095  43.93998075 33.87330975 -3.1867095  43.176391 32.648687 -3.174922  41.655343 31.243759 -2.100898  42.941189 31.9461255 -2.1126855  42.41893275 32.46838175 -2.1126855  43.1825225 33.6930045 -2.124473  43.70477875 33.17074825 -2.124473  44.227035 32.648492 -2.124473  41.667606 33.332394 0  42.94425475 32.46828425 -1.587461  42.1867965 32.287979 -0.5252245  41.6614745 32.2880765 -1.050449  42.42506425000001 33.51269925 -1.0622365  42.180665 31.2436615 -1.5756735  42.705987 31.243564 -1.050449  42.18986225 32.81013775 0  42.9473205 32.990443 -1.0622365  42.7121185 32.2878815 0  42.70905275 31.76572275 -0.5252245  43.756631 31.243369 0  43.231309 31.2434665 -0.5252245  43.23437475 31.76562525 0  43.46957675 32.46818675 -1.0622365  43.991833 31.9459305 -1.0622365  43.466511 31.946028 -1.587461  51.076885 19.154022 12.769093  50.28868799999999 18.530101 12.181211  50.80766375 18.53203975 11.6602965  50.80766375 18.01261475 12.1797215  50.5384425 16.8712075 11.59035  50.01946675 17.90811875 11.0724145  50.01946675 17.38869375 11.5918395  50.5384425 17.3906325 11.070925  50.5384425 17.9100575 10.5515  49.500491 17.90618 11.593329  50 16.666093 8.333907  49.48102425 16.66415425 8.8548215  50 16.146668 8.853332  50.26922125 16.76865025 9.9621285  49.75024550000001 16.7667115 10.483043  50.26922125 16.24922525 10.4815535  50 15.627243 9.372757  49.48102425 16.14472925 9.3742465  48.9620485 16.6622155 9.375736  50.26922125 17.28807525 9.4427035  49.75024550000001 17.2861365 9.963618  50 14.588393 10.411607  49.48102425 15.62530425 9.8936715  50 15.107818 9.892182  50.26922125 15.72980025 11.0009785  47.924097 16.658338 10.417565  48.44307275 16.66027675 9.8966505  49.23126975 17.28419775 10.4845325  49.23126975 16.76477275 11.0039575  48.712294 17.282259 11.005447  55.333333 16.191586 7.565014  54.66666725 15.50654225 6.76519125  53.99999975 16.167154 6.86408175  55.333333 16.06121325 6.8841085  55.333333 15.9308405 6.203203  55.333333 12.920529 5.749776  54.66667375 13.0581875 7.007792999999999  54.66667375 12.75289 6.079005499999999  54.66667375 12.38394625 6.7184825  54.00001450000001 11.8473635 7.687189  54.00001450000001 12.8905485 7.3370225  54.00001450000001 12.52160475 7.9764995  54.00001450000001 12.21630725 7.047712  54.00001450000001 12.585251 6.408234999999999  54.00001450000001 13.195846 8.26581  55.333333 12.55158525 6.389253  55.333333 12.1826415 7.028729999999999  54.66667375 12.68924375 7.64727  54.66667375 12.0150025 7.3579595  55.333333 13.2258265 6.678563499999999  55.333333 12.85688275 7.3180405  55.333333 13.531124 7.607351  54.66667375 13.363485 7.9365805  55.333333 11.444754 8.307684  54.66667375 12.3203 8.286747  54.66667375 11.64605875 7.9974365  55.333333 11.81369775 7.668207  55.333333 12.487939 7.9575175  52.666696 12.249973 7.066694  53.33335525 12.7229095 7.666252  53.33335525 12.417612 6.7374645  53.33335525 12.04866825 7.3769415  53.205091 23.410309 6.3846  53.20509375 23.942358 5.85254825  52.40381825 23.28662075 5.309561  52.93587875 23.2866075 4.7775135  40.43632 31.926116 10.637564  40.00311600000001 29.4951715 9.5017125  40.4365275 30.862401 11.7010715  41.5004825 30.8616315 10.6378865  42.564645 29.797147 10.638209  40.0033235 28.4314565 10.56522  41.0672785 28.430687 9.502034999999999  41.50069 29.7979165 11.701394  40.436735 29.798686 12.764579  39.569912 27.064227 8.365861000000001  53.205086 19.153913 10.641001  52.4038145 19.05482975 9.541355749999999  51.87175975 19.0640365 10.06420375  52.4038145 18.531958 10.0642275  51.602543 17.910003 9.487454  51.602543 18.43287475 8.964582249999999  51.07048825 18.4420815 9.487430249999999  50.5384335 18.97416 9.487406499999999  51.07048825 18.96495325 8.964558499999999  51.602543 18.9557465 8.441710499999999  52.67303125 19.6859915 10.64097725  51.87175975 19.58690825 9.541331999999999  51.339705 19.596115 10.06418  52.1409765 20.21807 10.6409535  51.076867 21.282227 10.640906  50.80765024999999 20.65106525 9.5412845  51.339705 20.11898675 9.54130825  50.80765024999999 20.1281935 10.06415625  51.07048825 19.487825 8.441686749999999  50.5384335 19.49703175 8.964534749999999  50.5384335 20.0199035 8.441663  51.60892175 20.7501485 10.64092975  50 18.75758 6.24242  50.8012715 18.85666325 7.342065249999999  50 18.23470825 6.765291749999999  50.26921675 18.86587 7.864913249999999  50.26921675 18.34299825 8.387784999999999  50 17.7118365 7.2881635  50.8012715 18.3337915 7.864936999999999  50.26921675 19.38874175 7.342041500000001  50.8012715 17.81091975 8.38780875  50 17.18896475 7.81103525  50.26921675 17.8201265 8.910656749999999  50.8012715 17.288048 8.9106805  48.948702 31.923174 2.128124  48.69101825 30.71288875 1.596093  48.169365 31.23524275 0.5327317500000001  48.16875475 31.23515225 1.596093  47.3888075 30.5471305 1.064062  47.91168125 30.0249575 0.0007007500000000277  47.911071 30.024867 1.064062  47.38941775 30.547221 0.0007007500000000277  47.390028 30.5473115 -1.0626605  48.4333345 29.5026035 1.064062  48.94931225 31.9232645 1.06476275  48.6916285 30.71297925 0.5327317500000001  48.16997525 31.23533325 -0.5306295  48.9499225 31.923355 0.001401500000000055  48.951143 31.923536 -2.125321  48.692849 30.71316025 -1.59399075  48.69223875 30.71306975 -0.5306295  48.1705855 31.23542375 -1.59399075  47.9122915 30.025048 -1.0626605  48.43394475 29.502694 0.0007007500000000277  48.434555 29.5027845 -1.0626605  48.95053275 31.9234455 -1.06195975  47.131734 29.33693575 -0.53133025  47.13112375 29.33684525 0.532031  47.6539975 28.81467225 -0.53133025  47.65338725 28.81458175 0.532031  46.6094705 29.85919925 -0.53133025  46.60886025 29.85910875 0.532031  48.17565075 28.29231825 0.532031  44.692896 23.411955 14.895149  43.933108 23.28459325 13.78229875  44.45556775 22.76475775 13.7796745  43.1721795 22.116297 13.7115235  41.651463 20.820639 12.527898  42.4123915 21.98893525 12.59867325  42.93485124999999 21.46909975 12.596049  44.2182395 22.1175605 12.6642  43.69577975 22.637396 12.66682425  43.17332 23.1572315 12.6694485  43.743583 20.823166 10.433251  43.220553 20.82253425 10.95691275  43.4584515 21.99019875 11.55134975  42.6986635 21.862837 10.4384995  41.653744 22.902508 10.443748  42.1756335 21.86220525 10
[...]
<PointData  Vectors="u"> 
<DataArray  type="Float64"  Name="u"  NumberOfComponents="3" format="ascii">7.8808230546812510e+01 -7.4950072837805109e+01 -3.8328345964197861e+00  7.8909364433583420e+01 -7.5232199245947129e+01 -4.3926935763619808e+00  7.8205744286348690e+01 -7.5979091932527567e+01 -3.1925776950057698e+00  7.7792235164181434e+01 -7.4693813582463392e+01 -3.5576902642649055e+00  7.7144347763735311e+01 -7.4451812159931677e+01 -2.9543232963764630e+00  7.8133263543029940e+01 -7.4948692026908375e+01 -3.8203827308717324e+00  7.7657467313994331e+01 -7.5788932154400115e+01 -2.7358002749407997e+00  7.7938653097598646e+01 -7.7261750338759953e+01 -2.5302373705778898e+00  7.8704750817821292e+01 -7.6411892644102011e+01 -3.6274870664452554e+00  7.9293795821297095e+01 -7.5464067192047921e+01 -4.7747902341981989e+00  7.5505561705875564e+01 -7.4119652311344851e+01 5.7740936189231727e-02  7.6448981519138073e+01 -7.4353666333955957e+01 -2.1723824999793631e+00  7.6328749996937290e+01 -7.5269791227013798e+01 7.6331831717350154e-02  7.6529646961968766e+01 -7.4142326395463940e+01 -2.0651124625899655e+00  7.7501568963872685e+01 -7.4599475950262459e+01 -2.9271920629432180e+00  7.7267980809862252e+01 -7.5434428804558280e+01 -1.8507016970282715e+00  7.7403562168505488e+01 -7.6425570504249109e+01 -1.8950405999161778e-02  7.7363726473124188e+01 -7.5532095170265890e+01 -1.9181234455611520e+00  7.7657803384942781e+01 -7.4575856260450607e+01 -3.0865463726663123e+00  7.9660899002880043e+01 -7.9535610201208129e+01 1.0746785650156172e-02  7.9541947314912349e+01 -7.8428077634300863e+01 -1.1889946153387723e+00  7.8220651392105410e+01 -7.7803904817641126e+01 -2.0005270900595926e-02  7.7858305312705227e+01 -7.6874498518596681e+01 -1.7481495858041733e+00  7.8263590323965502e+01 -7.5988298252236788e+01 -2.8473154433872998e+00  7.8417174852363686e+01 -7.6858844254904326e+01 -1.6754637784234589e+00  7.9871188984970459e+01 -7.7398232225178361e+01 -2.4402990654633054e+00  7.8457353195261803e+01 -7.8667673452741781e+01 -1.5635802744730705e+00  7.8995588600734308e+01 -7.7607033889906376e+01 -2.5756491265666952e+00  8.0300355595071849e+01 -7.5177501764205218e+01 -5.0607542396655312e+00  8.0058949641388196e+01 -7.6293252721868626e+01 -3.7734710677246479e+00  7.8624242967239027e+01 -7.5824992567506399e+01 -2.8845807205896512e+00  7.8573486310968889e+01 -7.5036859467877562e+01 -3.9950870426617806e+00  7.9506624882649689e+01 -7.6597651577915073e+01 -3.7737218993599644e+00  7.8931835813773048e+01 -7.4822262010114571e+01 -4.0952583478812521e+00  7.9838269478442683e+01 -7.5469919913759512e+01 -4.9767223083923415e+00  9.3786511385852293e+01 -8.1421478097379051e+01 -1.2293141692033412e+01  9.2719050919045088e+01 -8.5915830209390720e+01 -1.7368798580909427e+01  9.0636850565798454e+01 -8.5298541193855456e+01 -1.4419854155191825e+01  8.8913124362876943e+01 -8.7949092936442455e+01 -1.4716997560514594e+01  8.5824489245747316e+01 -9.8385725702241459e+01 -2.0480817099226403e+01  9.3540603937489067e+01 -8.9089525569182271e+01 -1.8376314736282996e+01  9.2555758733596349e+01 -9.3514040744967389e+01 -2.0725324932333070e+01  9.0112150217497557e+01 -9.3626421589693933e+01 -1.7935560462378934e+01  9.1109155669098598e+01 -8.9048617207011418e+01 -1.6054233557200313e+01  9.5242818012127785e+01 -8.9518355838014742e+01 -2.1301167197401579e+01  9.3646665776707579e+01 -1.7083325046089291e+02 -7.7080470527416310e+01  1.1638954036010814e+02 -9.3927078429285075e+01 -1.3166519433035630e+01  1.5469090033957798e+02 -1.1364027636452865e+02 -3.0446225830037079e+01  9.6944406349354026e+01 -1.0268517762464434e+02 -2.2213759653569866e+01  9.7427050442332856e+01 -9.0242906565236325e+01 -1.7405475444159844e+01  9.9773797544110849e+01 -9.6525120203524480e+01 -2.0881933347372769e+01  1.1648518678994981e+02 -1.0233398492387522e+02 -2.3441309078403272e+01  1.1074114639119310e+02 -9.1788337992835864e+01 -1.8362525616052793e+01  1.0404283463115547e+02 -8.7701202018037534e+01 -1.5433842455225353e+01  1.4925064980964831e+02 -1.1330973228636667e+02 -2.4824266160114394e+01  9.7164309630584398e+01 -9.6069525889550590e+01 -1.9226281217436824e+01  1.1174623179457400e+02 -9.9562330826466152e+01 -1.5374295580232147e+01  1.0752737801248247e+02 -9.3119285330879009e+01 -1.4451049297692030e+01  9.3172910504669360e+01 -1.1514017217458530e+02 -2.9929020519432122e+01  9.9595604619440337e+01 -1.0800800133619745e+02 -2.8062435841181241e+01  9.8295474841288822e+01 -8.7068406976968276e+01 -1.1154155533140070e+01  9.9320479712177672e+01 -8.6600552491073373e+01 -1.2697465162647266e+01  1.0258033139861213e+02 -9.1527493416257954e+01 -1.3455831140169600e+01  9.4733848442424232e+01 -8.9985830900808836e+01 -1.5569418720128889e+01  1.0829194116188205e+02 -8.7722301789449119e+01 -2.0557747515356358e+01  1.0451001406702314e+02 -8.7218235723839385e+01 -1.7410161678260692e+01  1.1240318989831312e+02 -9.1271250986666701e+01 -1.8752269467582654e+01  9.9007551992485503e+01 -9.0434634916888641e+01 -2.0006179158775179e+01  1.0204721923072867e+02 -9.8073265320183623e+01 -2.4621708031669336e+01  1.0207808793771086e+02 -9.0466249884835165e+01 -2.2617102986421841e+01  9.1330529240684683e+01 -7.6720468650681838e+01 -1.4523314775853436e+01  9.2828383988878713e+01 -7.6965686413651028e+01 -1.7667374601699411e+01  9.1155095795650496e+01 -7.7302520683945914e+01 -1.5753862796042911e+01  9.2218825563876877e+01 -7.9074146408010805e+01 -1.5969185646633193e+01  9.4409564278409235e+01 -8.2389942142015045e+01 -1.8076156215119653e+01  9.3447342898683203e+01 -7.7307867631864355e+01 -1.8624921322190097e+01  9.5031951837634438e+01 -7.9575565613247946e+01 -1.9449364646833111e+01  9.3212849410454012e+01 -7.9800245002887934e+01 -1.7218792790733179e+01  9.1723675197171559e+01 -7.7563769923058729e+01 -1.6618948049297721e+01  9.5130432293519462e+01 -7.6987098683740228e+01 -2.0782849992030606e+01  9.3078260760908250e+01 -7.6562431906704433e+01 -1.6524599398423010e+01  9.4048206857152465e+01 -7.8912442205217886e+01 -1.8121653259072549e+01  9.4810077247481061e+01 -7.6162276085762883e+01 -1.8603908384748340e+01  9.4608913744899155e+01 -7.6788017791227574e+01 -1.9904778974527165e+01  9.8210725897245268e+01 -7.4976497716832611e+01 -2.3125158278698589e+01  9.6180775138134265e+01 -7.6127191877639760e+01 -2.2045205466464900e+01  9.7641072966720230e+01 -7.8063517989196654e+01 -2.2796984425165562e+01  9.5789372330345913e+01 -7.8533857550555652e+01 -2.0406570519413755e+01  9.6379688730919085e+01 -8.2228672130706812e+01 -2.0476169689136359e+01  9.8180567857971852e+01 -8.1814576990856523e+01 -2.2967371208728846e+01  9.6821307650332443e+01 -7.9256465140086632e+01 -2.1736115536507576e+01  9.6560842094276651e+01 -7.5677515302183096e+01 -2.0812305069915968e+01  9.8809518745969839e+01 -8.2273082216410756e+01 -2.1123957158146389e+01  1.0232589786005910e+02 -8.3749560042611563e+01 -1.9036073002719853e+01  9.9479350816020286e+01 -8.6213991919027308e+01 -2.0448784443991631e+01  9.6593829419255030e+01 -7.9493644558509843e+01 -1.9956568565907954e+01  9.6930530335871254e+01 -8.2382967651637969e+01 -1.8637867211442401e+01  9.9231768851840556e+01 -8.1007025060529003e+01 -1.7978315658878973e+01  1.0163475698408587e+02 -8.5875508043171720e+01 -2.3031408519208398e+01  9.3460589350071402e+01 -7.6514538138519185e+01 -1.6877460564264624e+01  9.4300491559414652e+01 -7.7099675306303041e+01 -1.9040122621444787e+01  9.5769696846041057e+01 -7.8553120741442896e+01 -1.7394696070121860e+01  9.4793528183031754e+01 -7.9719872256065798e+01 -1.7736397774769358e+01  9.2676635336627001e+01 -7.7268575670218596e+01 -1.6948528667203313e+01  7.1989189047170470e+01 -6.6745719224168397e+01 5.1874931920178904e+00  7.2145287964478257e+01 -6.7417532037657665e+01 4.4117866100464420e+00  7.1217521690918957e+01 -6.6486337437834038e+01 4.4202826862771731e+00  7.2115838403502693e+01 -6.6397660955677566e+01 5.3897301738901993e+00  7.2064738403501920e+01 -6.6225068614000094e+01 5.7902512620020445e+00  7.2133638444251432e+01 -6.7262865945436587e+01 4.4859430802226017e+00  7.1180555544141910e+01 -6.6326749423487968e+01 4.4442962893065516e+00  7.0480640519912541e+01 -6.6260183638216546e+01 3.3802857167354987e+00  7.1374497614350133e+01 -6.7184052280982996e+01 3.4184865920962340e+00  7.2286203059234253e+01 -6.8112503145023979e+01 3.4395946133385591e+00  6.8338229221183539e+01 -6.6431719291618151e+01 -2.3139152694300122e-01  7.1280887311830966e+01 -6.7183105890331831e+01 3.5605664529246632e+00  6.9982562782494625e+01 -6.7516383816608752e+01 2.7502384415803318e+00  7.0106555170951111e+01 -6.6421162152820301e+01 3.7208307134144025e+00  6.9593463657787282e+01 -6.6182134413010090e+01 2.4197714920961655e+00  7.2059367143630212e+01 -6.7234820332521139e+01 4.8248512140909385e+00  7.1969821429174885e+01 -6.8268095083724447e+01 3.6020171458658625e+00  6.9020846419844361e+01 -6.7536014224076013e+01 1.0681569703387317e-01  7.0510826719964811e+01 -6.7067567449751110e+01 2.3283497810881961e+00  7.0044513182560109e+01 -6.8358303929269240e+01 -1.3538391012941881e-01  7.0911051492615272e+01 -6.8377238307943912e+01 2.4670879896040945e+00  7.1868623020299125e+01 -7.0209976795546709e+01 7.9678328128296685e-02  7.1811126865453872e+01 -6.9337167266552626e+01 2.5694719240879991e+00  7.0844772783202416e+01 -6.9392576621108319e+01 -8.8704048966240401e-02  7.1409239742586536e+01 -6.7986319857339467e+01 2.3610057397406550e+00  7.2316012929351601e+01 -6.8931338106348193e+01 2.2661825669080824e+00  7.2185934281325046e+01 -6.8154058387395352e+01 3.3442143353164440e+00  1.0815349039777820e+02 -7.1954556626227003e+01 -3.6124147263144607e+01  1.0644268603271455e+02 -7.7740879142860564e+01 -4.2243378796462856e+01  1.0315920639547464e+02 -8.0643520600967136e+01 -4.0242145506370001e+01  1.0428788245798867e+02 -7.8056172795138167e+01 -4.3718216110380091e+01  1.0271202597805657e+02 -9.1081185750628492e+01 -5.7483667553834422e+01  1.0762162051761064e+02 -8.7583596702979648e+01 -4.7770313840543395e+01  1.0817902995978287e+02 -8.6087433039774240e+01 -5.1388293700422238e+01  1.0157477043273359e+02 -9.3858618978296235e+01 -5.3684416010178495e+01  1.0037833080540176e+02 -9.4407441644554311e+01 -4.9115041926526402e+01  1.0928766654577701e+02 -8.2129188536616354e+01 -4.6931973408237972e+01  1.0562380212640164e+02 -1.8954716272431122e+02 -1.2752202753774114e+02  1.9398130088366310e+02 -1.1346933814804913e+02 -6.4178622538404511e+01  1.0969352946064878e+02 -2.0522391761975857e+02 -1.4987548809851671e+02  1.1853160871110502e+02 -1.0977705362692497e+02 -6.5873851773670282e+01  1.2285751021996983e+02 -9.3008244345351599e+01 -5.4230264992978732e+01  1.1951115123021147e+02 -1.0959868620311741e+02 -7.0158855836494624e+01  1.0895186693047289e+02 -1.9366993681730636e+02 -1.4310749957935431e+02  1.7122844009998929e+02 -1.1639862743599396e+02 -6.9581873954685634e+01  1.3843460469150438e+02 -9.8768324850455670e+01 -5.2693664931548795e+01  1.1178137718479375e+02 -1.1595452257613728e+02 -6.3163547393365526e+01  1.1771460040739102e+02 -1.0614096867578527e+02 -5.8972147632556073e+01  1.1886189751436895e+02 -1.8615672281029705e+02 -1.5328270044049376e+02  1.9949082211877717e+02 -1.0577186850516551e+02 -6.5423518916386229e+01  1.2264766730961290e+02 -1.9315647299142947e+02 -1.5330202505822243e+02  1.2154629587699550e+02 -1.0729653190477983e+02 -7.2698091037478619e+01  1.2486053615273781e+02 -7.9816417131937897e+01 -4.5357992143873815e+01  1.3234856054796805e+02 -8.4446172628299351e+01 -4.4605661499073477e+01  1.1925952328213499e+02 -9.3000663741815558e+01 -5.2611867448597408e+01  1.2164700045731539e+02 -9.0158249208649750e+01 -5.6272177912952287e+01  1.1762893244781411e+02 -8.3213902061535663e+01 -4.8337798274129945e+01  -1.1546054866285940e-01 -1.2552498961564788e+02 -4.8455309448469485e+01  4.8278157430182613e+00 -1.4310639392870652e+02 -5.7340836740782102e+01  1.2163275380313783e+01 -1.3715045331690555e+02 -5.1925005160198189e+01  2.4609636444080524e-01 -1.3541315831425567e+02 -5.0986846424869192e+01  -3.4191634666627707e-01 -1.4375613050350378e+02 -5.0311514957794486e+01  -3.0748892716510384e-01 -1.8362049165272484e+02 -8.3920559248329809e+01  -3.2739961831196146e-01 -1.5888179579180289e+02 -8.6162048751517631e+01  1.3521803034763262e+00 -1.7865342822981393e+02 -9.2055698675653687e+01  -7.4052215270660806e+00 -1.5829501778161477e+02 -9.4925707565946283e+01  3.2118175325009252e-01 -1.6541286182256465e+02 -1.0635737682192203e+02  1.1325341174214074e+00 -1.5998050734143300e+02 -9.0482657397959343e+01  2.1115252771773525e+00 -1.5566083906120531e+02 -9.7151985360105627e+01  -6.6545643766156548e+00 -1.6662824857920660e+02 -9.4101620008332333e+01  1.3859481791368455e-01 -1.7697010544647773e+02 -8.9836320202866730e+01  6.0301607867742080e+00 -1.4696291834967261e+02 -9.0093587970343123e+01  -4.1293286011392221e+00 -1.5775159708692857e+02 -9.3271659845310822e+01  -3.7041990345205043e+00 -1.5481095311452157e+02 -8.8551471926555195e+01  5.3238625633288528e-01 -1.5529921921427680e+02 -9.1175937908683863e+01  -7.0579000599588309e+00 -1.6123036475054579e+02 -9.1008969688664692e+01  6.3390422073113672e-01 -1.6138059615477033e+02 -8.3625925242691196e+01  -1.5621869615200501e-01 -1.5631927859214090e+02 -8.7463529719556789e+01  -2.3646773321976983e-01 -1.4951420284598424e+02 -8.1600357904150769e+01  2.8034273752483623e+00 -1.4775127070119663e+02 -8.5347103329612580e+01  -3.1926511164303323e-01 -1.5918754026531826e+02 -1.1827740489938530e+02  1.0912107392539161e+00 -1.5158369423221129e+02 -9.8714847267922678e+01  1.1640278653494299e-01 -1.6868361428752880e+02 -1.0576402910721265e+02  -5.4934488613563852e+00 -1.6026941430824911e+02 -8.6186717670812484e+01  4.7775507068876305e-01 -1.5229602324703046e+02 -9.3305755084130610e+01  5.0384772661545452e-01 -1.7809509981852827e+02 -1.0264230531620872e+02  2.2223545783024283e+00 -1.6025096005177798e+02 -9.7788891770176278e+01  -1.7708220658766802e+00 -1.8272309409416093e+02 -9.0718391469729596e+01  -2.3325831888387132e+00 -1.7072034710870832e+02 -1.1301125648988588e+02  7.2396445692911627e+01 -7.9413049552845067e+01 6.9674834374835788e+00  7.0745932764582236e+01 -7.9174582347616507e+01 8.7513380042588587e+00  6.5997360576000943e+01 -9.0216953096229716e+01 -2.4348062092589267e+00  5.5904466321645977e+01 -9.0005312332099294e+01 1.3708535866460678e+00  7.4117119698771702e+01 -5.7684298899009313e+01 -1.6433276813510624e+01  7.6377191972244546e+01 -5.8907839390527037e+01 -1.7472182462841399e+01  7.5670848250939002e+01 -5.6947262141842096e+01 -1.8722502463086567e+01  7.6445626266745151e+01 -5.9298738851085417e+01 -1.7152119487650506e+01  7.8927072306524892e+01 -6.1043914132499374e+01 -1.7887582067333252e+01  7.7999673177194197e+01 -5.8064495297193019e+01 -1.9943782463156399e+01  7.8854074044938272e+01 -6.0623999840062837e+01 -1.8240482910725888e+01  7.8090244437974405e+01 -5.8491706707135094e+01 -1.9594392547412806e+01  7.7125801919933139e+01 -5.5995167956775369e+01 -2.1129775967051518e+01  7.8801644005509388e+01 -6.0199641213774122e+01 -1.8597691718821711e+01  8.7822463269977177e+01 -7.1308923568184696e+01 -1.5328175695067555e+01  7.9088061068717764e+01 -8.8763771991261194e+01 -2.7523132544696409e+01  8.8474030791257647e+01 -8.7170825367490139e+01 -3.1360286694879651e+01  8.1115819109030753e+01 -8.7737489937338935e+01 -3.1732087667431088e+01  8.1817039704707170e+01 -1.0610456936231226e+02 -4.9457255809528839e+01  8.1987702595380526e+01 -1.0630872205645480e+02 -4.3996038634572272e+01  9.1293033252459949e+01 -1.0262636448239765e+02 -4.5497192200499789e+01  9.7737329851258792e+01 -9.7043925887977906e+01 -4.0883357913172098e+01  8.8942055474671463e+01 -1.0236726877470993e+02 -4.1645835349415378e+01  7.9842324631732311e+01 -1.0745797287844246e+02 -4.0352157923841766e+01  9.5034546979260824e+01 -7.5783491052134053e+01 -1.8955160342286064e+01  8.7362921571517219e+01 -8.8982710986967447e+01 -2.7687639514510774e+01  9.4904181382180468e+01 -8.7177977785732438e+01 -3.1377685688977664e+01  9.8345132500989067e+01 -7.7170291875944883e+01 -2.0991231162859346e+01  1.0181485404855452e+02 -7.8459687243935576e+01 -2.3245106068626505e+01  9.6730778795743191e+01 -8.6198757503157239e+01 -2.6408149191233328e+01  9.3018242022682685e+01 -8.7259566442872341e+01 -2.6939708614884573e+01  9.8441824889328643e+01 -8.4657063564389617e+01 -2.9657073015202862e+01  8.8297919329473288e+01 -1.0369486021439531e+02 -3.7162266504157849e+01  9.6401365912559797e+01 -9.7967546512202787e+01 -3.7185163527419874e+01  9.3931536986863691e+01 -9.8262372214977702e+01 -3.3555961368764464e+01  1.0121024673862225e+02 -7.8708443214109110e+01 -2.2551210713045464e+01  1.0626126910854067e+02 -1.8083977991047877e+02 -9.9303202764659900e+01  8.4766926437531964e+01 -1.2567416876322044e+02 -5.1378792671830979e+01  1.2373219170835800e+02 -1.9628195300188204e+02 -1.1692836292434038e+02  1.0848847907612320e+02 -1.1536293844431832e+02 -4.7300550128319379e+01  1.0939392192368599e+02 -1.1833630725588689e+02 -5.4450149293512951e+01  1.0906482120545790e+02 -1.8405525698537122e+02 -1.1042812515902042e+02  9.0026949593383861e+01 -1.3082790035500355e+02 -6.1277703054827228e+01  1.0355898159320084e+02 -1.1802447556770264e+02 -4.5905253276365173e+01  8.9342864441719115e+01 -1.2559672546796439e+02 -6.1549758571343737e+01  1.3095539704408216e+02 -1.9759283163921344e+02 -1.3070355836049976e+02  1.1379107941381186e+02 -1.1286022499228012e+02 -5.6449911568089107e+01  9.5463407534392601e+01 -1.2888047664997652e+02 -7.0409226719628379e+01  7.4970908238710180e+01 -7.3476150421643752e+01 -1.5595233860496958e+00  7.5587398565283237e+01 -7.4293527304341808e+01 -1.2691826196431866e+00  7.4865800341956501e+01 -7.3481401871456100e+01 -5.5155809086881324e-01  7.5248483322428740e+01 -7.3417306217618020e+01 -1.5131936999410927e+00  7.5522564882435688e+01 -7.3489594541808827e+01 -1.3774139310371853e+00  7.5791151748869666e+01 -7.4612481770682109e+01 1.8559515307918099e-02  7.6043251020828805e+01 -7.4536282514624247e+01 -1.2401241474812006e+00  7.5352603746777532e+01 -7.3560038375281295e+01 1.6925608507568255e-03  7.5518321532726844e+01 -7.3499222274647721e+01 1.3156536747316230e+00  7.6296011665500117e+01 -7.5696636756216179e+01 -1.1388512813965348e+00  7.4564371445584896e+01 -7.3524924377209686e+01 -7.3332729999299506e-01  7.5235610366248679e+01 -7.4387811000088959e+01 -4.6059602797914539e-01  7.4901730565573445e+01 -7.3518142509405948e+01 5.0368612626610487e-01  7.4370763617616916e+01 -7.3550801138624223e+01 -2.0085830439527694e-02  7.4995081661167276e+01 -7.3459913312219186e+01 1.5176440354722187e+00  7.5605015698632570e+01 -7.4314408432827676e+01 1.2946939823698709e+00  7.5225087844469527e+01 -7.4350275663942057e+01 4.4924418264065069e-01  7.5220296221075472e+01 -7.3429572229656529e+01 1.4775819706822486e+00  7.6021690877676349e+01 -7.4554787085292446e+01 1.2401510900210113e+00  7.6090912225016524e+01 -7.5763896715017694e+01 -5.5890264655464031e-03  7.6286257572890406e+01 -7.5706791024363667e+01 1.0879827811092544e+00  7.4562292212345909e+01 -7.3531753277931543e+01 7.3938798018382590e-01  7.6495232384924833e+01 -7.4823704553755988e+01 8.6866240405888639e-01  7.6479954416609971e+01 -7.4804135231470937e+01 -8.9131157332570243e-01  7.6983349814332826e+01 -7.6100477411118774e+01 7.6176479743202730e-01  7.7035566028348555e+01 -7.6092163150592569e+01 -8.3915836295163060e-01  7.5772371205961122e+01 -7.3643042079580894e+01 8.8469718016243537e-01  7.5807008908777831e+01 -7.3629494491805957e+01 -9.6828790705214640e-01  7.7456904967860311e+01 -7.7642896814421889e+01 -7.2396645989363440e-01  9.2052923013669570e+01 -5.8868829734877842e+01 -3.3200720787461343e+01  9.1098694185023945e+01 -5.9691706457337411e+01 -3.1465443804311889e+01  9.2880652425799411e+01 -6.0480360701893211e+01 -3.2507905352605547e+01  9.1641052770199636e+01 -5.8404643541583447e+01 -3.3335092945128231e+01  9.1255611610356965e+01 -5.7828450882073454e+01 -3.3420801685985154e+01  9.0756630631257096e+01 -5.9163373796704093e+01 -3.1642051277596668e+01  9.2549826663271531e+01 -5.9948129506613569e+01 -3.26920