<?xml version="1.0"?>
<VTKFile type="UnstructuredGrid"  version="0.1"  >
<UnstructuredGrid>
<Piece  NumberOfPoints="6854" NumberOfCells="27770">
<Points>
<DataArray  type="Float64"  NumberOfComponents="3"  format="ascii">12.762923 -48.953436 -21.283641  11.601017 -47.389573 -20.00941  10.558215 -47.3894005 -21.0523845  10.550101 -48.4352365 -20.0146625  8.337279000000001 -47.917037 -18.745684  9.388195 -46.8713735 -18.7404315  8.345393000000001 -46.871201 -19.783406  8.353507 -45.825365 -20.821128  9.396309 -45.8255375 -19.7781535  10.439111 -45.82571 -18.735179  12.767621 -53.206402 -17.025977  12.6546495 -50.5399175 -15.8054335  11.590475 -50.539886 -16.869639  11.5915135 -51.603201 -15.8052855  13.830757 -52.1431185 -17.026125  13.8297185 -51.0798035 -18.0904785  12.7665825 -52.14308699999999 -18.0903305  12.765544 -51.079772 -19.154684  14.893893 -51.079835 -17.026273  10.415406 -50 -14.584594  14.895902 -53.206407 -14.897691  14.760749 -50.5397785 -13.699472  14.740248 -51.6032035 -12.6565485  13.697414 -51.6032035 -13.6993825  15.959237 -52.142982 -14.8977805  17.022572 -51.079557 -14.89787  15.803583 -50.5397785 -12.656638  12.498926 -50 -12.501074  13.54176 -50 -11.45824  14.584594 -50 -10.415406  2.12453 -44.694372 -36.181098  2.1242935 -42.119619 -34.75608800000001  2.124692 -43.1836885 -33.6916195  1.062265 -43.1827075 -34.7550275  3.1865585 -43.6312835 -36.1821585  4.2489855 -43.63226450000001 -35.1187505  3.186957 -44.695353 -35.11769  4.249384 -44.696334 -34.054282  4.248587 -42.568195 -36.183219  0 -41.671043 -33.328957  8.497763000000001 -38.314348 -36.187889  7.404592500000001 -36.847608 -34.7478  7.403092000000001 -37.890382 -33.706526  6.349558 -37.8970215 -34.7534205  4.201353 -37.479695 -33.318952  5.256387500000001 -36.4302815 -33.3133315  5.254887 -37.4730555 -32.2720575  6.308421 -37.466416 -31.225163  6.3099215 -36.423642 -32.266437  6.311422 -35.380868 -33.307711  6.375125 -44.697854 -31.927021  6.347429999999999 -43.1755805 -29.476989  5.2841695 -43.1749865 -30.5408435  5.2804135 -44.218725 -29.5008615  7.438385499999999 -44.698448 -30.8631665  8.501645999999999 -44.699042 -29.799312  6.343674 -44.219319 -28.437007  4.185702 -43.739596 -27.074702  4.189458 -42.6958575 -28.114684  4.193214 -41.652119 -29.154666  10.625718 -42.573079 -29.801202  10.577175 -41.059952 -27.362873  9.513374000000001 -41.059448 -28.4271775  9.505876499999999 -42.1055725 -27.3885505  11.689519 -42.573583 -28.7368975  12.75332 -42.574087 -27.672593  10.5696775 -42.1060765 -26.324246  8.386035 -41.638066 -24.975899  8.393532499999999 -40.5919415 -26.014526  8.40103 -39.545817 -27.053153  17.010096 -42.576164 -23.41374  15.834273 -39.995767 -23.1699595  15.835677 -41.05933 -22.104993  14.794856 -41.05886599999999 -23.146278  17.008692 -41.512601 -24.4787065  17.007288 -40.449038 -25.543673  14.793452 -39.995303 -24.2112445  12.579616 -39.541568 -22.878816  13.620437 -39.542032 -21.837531  14.661258 -39.542496 -20.796246  17.020145 -48.953426 -17.026429  15.810464 -47.3919295 -15.797607  15.8025155 -48.4398385 -14.7576465  14.7622455 -48.439047 -15.7987075  12.504346 -47.924668 -14.570986  13.5525645 -46.8775505 -14.5698855  13.544616 -47.9254595 -13.529925  14.584886 -47.926251 -12.488864  14.5928345 -46.878342 -13.5288245  14.600783 -45.830433 -14.568785  10.622169 -38.316611 -34.06122  10.581709 -36.8450495 -31.5732415  10.582167 -35.7798325 -32.6380005  9.518359499999999 -36.84439 -32.6372505  12.749326 -37.252713 -32.997961  11.6855185 -38.3172705 -32.997211  11.6859765 -37.2520535 -34.06197  12.749784 -36.187496 -34.06272  12.748868 -38.31793 -31.933202  8.41455 -35.372169 -31.213281  17.024297 -53.206351 -12.769352  16.8410615 -51.6031755 -10.555763  18.0877915 -52.142879 -12.7693295  18.0885635 -53.2062355 -11.705201  19.15283 -53.20612 -10.64105  19.152058 -52.1427635 -11.7051785  19.151286 -51.079407 -12.769307  6.372464 -40.441859 -36.185677  4.233259 -41.07367499999999 -33.6930665  5.285772 -40.0032895 -33.7109385  4.232632 -40.0096305 -34.7577375  6.373091000000001 -41.5059035 -35.12100599999999  6.373718 -42.569948 -34.056335  5.286399 -41.067334 -32.6462675  2.0928 -39.577402 -33.329798  3.14594 -39.571061 -32.282999  4.19908 -39.56472 -31.2362  12.756446 -44.700945 -25.542609  11.6162 -43.1683035 -24.2154965  11.606438 -44.215913 -23.177649  10.5634835 -44.216078 -24.2204385  8.370521 -43.731211 -22.898268  9.423237499999999 -42.6834365 -22.893326  9.413475500000001 -43.731046 -21.8554785  10.45643 -43.730881 -20.812689  10.466192 -42.6832715 -21.8505365  10.475954 -41.635662 -22.888384  3.170616 -40.00850699999999 -35.820877  3.1706935 -41.0727985 -34.7565085  2.1242935 -41.080035 -35.795672  4.2485095 -41.5039035 -37.2475875  4.248432 -40.439612 -38.311956  2.124216 -40.0157435 -36.8600405  0 -39.591875 -35.408125  1.0464 -39.5846385 -34.3689615  10.631837 -46.826698 -25.541466  9.499546500000001 -44.2156955 -25.2847585  9.501179 -45.2789545 -24.219867  11.6941415 -45.7638215 -25.5420375  11.692509 -44.7005625 -26.606929  10.6302045 -45.76343900000001 -26.6063575  10.628572 -44.70018 -27.671249  12.69847 -34.7341915 -31.567338  11.6338825 -35.7752595 -31.590858  11.6357085 -34.73303850000001 -32.6312525  13.8125455 -36.188649 -32.9988055  14.875307 -36.189802 -31.934891  12.696644 -35.7764125 -30.5269435  10.521633 -33.278581 -31.199785  10.519807 -34.320802 -30.1593905  10.517981 -35.363023 -29.118996  1.062051 -42.118617 -35.819332  2.124316 -43.6302815 -37.2454025  2.124102 -42.566191 -38.309707  3.1863445 -42.567193 -37.24646300000001  14.891486 -48.953404 -19.15511  14.76921 -46.3278235 -17.902966  14.770682 -47.3907095 -16.8386085  13.7063525 -47.3906985 -17.902949  15.9543435 -47.890529 -19.155127  15.9558155 -48.953415 -18.0907695  17.018673 -47.89054 -18.0907865  17.017201 -46.827654 -19.155144  12.521219 -45.827993 -16.650788  16.86794 -50.5397035 -11.5923565  15.8044455 -51.6031755 -11.592379  15.62121 -50 -9.37879  16.657826 -50 -8.342174  12.6973715 -36.841076 -29.4615525  11.6334245 -36.84047649999999 -30.526099  11.595436 -49.500358 -17.904206  10.5497255 -50.539886 -17.9103885  8.333907 -50 -16.666093  9.3796175 -48.960472 -16.6599105  9.3746565 -50 -15.6253435  10.420367 -48.960472 -15.619161  10.425328 -47.920944 -16.653728  15.8241665 -42.107482 -21.068352  14.785529 -42.10597199999999 -22.108499  12.560962 -41.63578 -20.803258  13.61111 -40.589138 -20.799752  8.497714 -40.443543 -34.058742  7.403067500000001 -38.9549795 -32.6419525  6.3495335 -38.961619 -33.688847  6.348397 -40.0041315 -32.647471  5.253750500000001 -38.515568 -31.2306815  4.2002165 -38.5222075 -32.277576  6.349032 -41.068278 -31.58269  7.435716 -41.50674549999999 -34.0575385  8.498349000000001 -41.5076895 -32.993961  7.436351 -42.570892 -32.9927575  8.498984 -42.571836 -31.92918  7.399529 -39.9988375 -31.601633  7.400164 -41.062984 -30.536852  5.250212 -39.559426 -30.190362  6.301344 -39.554132 -29.144524  6.3048825 -38.510274 -30.1848435  12.759909 -46.827146 -23.412946  11.6081695 -45.2790135 -22.1128175  10.565215 -45.2791785 -23.155607  12.7581775 -45.76404549999999 -24.4777775  10.5712405 -43.1695055 -25.259254  9.507303499999999 -43.169123 -26.323574  11.690946 -43.6371335 -27.671921  12.754883 -43.637516 -26.607601  3.1707565 -37.9035435 -37.9257  3.170763 -38.9678335 -36.8614035  2.124216 -38.9693065 -37.9064775  4.2484255 -39.375322 -39.3762525  4.248419 -38.311032 -40.440549  2.1242095 -37.9050165 -38.970774  0 -37.499001 -37.500999  1.046547 -37.497528 -36.455925  2.093094 -37.496055 -35.410851  11.614637 -42.1048745 -25.2804885  9.430994500000001 -41.636864 -23.9321415  8.378278 -42.68463850000001 -23.9370835  6.349531000000001 -36.85475750000001 -35.7957115  4.201326 -36.437431 -34.361243  4.201299 -35.395167 -35.403534  5.2563605 -35.3880175 -34.3556225  8.4667955 -36.8487395 -33.6844655  9.559965999999999 -38.3154795 -35.1245545  8.465294999999999 -37.8915135 -32.6431915  7.361485500000001 -36.4192925 -31.219222  7.362986 -35.3765185 -32.260496  10.623341 -36.186409 -36.19025  10.5827115 -33.673045 -34.7442435  10.5822595 -34.7382545 -33.679486  9.519038 -34.737711 -34.743251  11.6870145 -35.121743 -36.1912425  12.750236 -35.1222865 -35.1274775  11.6865625 -36.1869525 -35.126485  12.750688 -34.057077 -36.192235  8.414735 -33.289013 -33.296252  -2.128413 -42.564387 -38.3072  -1.0642065 -42.117715 -35.8180785  -0.00194150000000004 -43.6293795 -37.244149  -0.002155499999999977 -42.56528900000001 -38.3084535  0 -44.692308 -38.307692  1.062051 -43.6292495 -38.3086995  1.062265 -44.69334 -37.244395  -1.0642065 -43.6283475 -38.307446  9.492672000000001 -46.3260315 -23.181297  8.4490035 -46.32723350000001 -24.223764  6.26617 -45.827769 -22.906062  7.3183455 -44.77949 -22.902165  7.3098385 -45.826567 -21.863595  8.362014 -44.778288 -21.859698  12.749907 -40.447026 -29.803067  11.6285725 -38.9492725 -28.422155  10.5754685 -39.9964215 -28.42811  10.581401 -38.95137 -29.467229  8.412895000000001 -37.455714 -29.131391  9.454134 -38.498668 -27.047198  9.4600665 -37.4536165 -28.086317  8.406962500000001 -38.5007655 -28.092272  10.507238 -37.451519 -27.041243  6.374034 -36.183265 -40.442701  5.286937 -34.7474755 -38.965588  4.2326795 -34.754618 -40.012703  4.2329845 -35.794764 -38.9722515  2.091935 -35.406263 -37.501802  3.1455825 -33.3188285 -38.53559  3.1458875 -34.3589745 -37.4951385  2.09163 -34.366117 -38.5422535  2.091325 -33.325971 -39.582705  4.19984 -33.311686 -37.488475  5.283466000000001 -42.1110335 -31.6055005  6.346099000000001 -42.11197749999999 -30.541923  4.196147 -40.6084195 -30.195433  4.2323965 -43.182868 -31.5847355  6.3744215 -43.63390099999999 -32.991678  4.231693 -42.118915 -32.6493925  2.089668 -41.667882 -31.24245  3.141441 -41.6600005 -30.198558  8.466174000000001 -38.95568400000001 -31.578142  9.5608205 -40.4442475 -32.9949315  10.623927 -40.444952 -31.931121  8.462635500000001 -39.99954200000001 -30.5378225  11.59951 -46.326428 -21.0740625  12.761416 -47.890291 -22.3482935  10.556
[...]
<PointData  Vectors="u"> 
<DataArray  type="Float64"  Name="u"  NumberOfComponents="3" format="ascii">4.7196056173007854e+01 3.1773472291664621e+01 1.5613461460180956e+01  4.7996859798733567e+01 3.2021486368980170e+01 1.5106334674170860e+01  4.7398753775645780e+01 3.1044735746051547e+01 1.5425316782833310e+01  4.7548827830503157e+01 3.1380855086697245e+01 1.4029785913890132e+01  4.7326098488635765e+01 3.3669872120306614e+01 1.3094240879335377e+01  4.7385160084376722e+01 3.2660006330786807e+01 1.4545674082035790e+01  4.6820506641287992e+01 3.1721613641476985e+01 1.4869518303568739e+01  4.6915920261576289e+01 3.1010688876004004e+01 1.5945116520906520e+01  4.7472451798081359e+01 3.1763905030603034e+01 1.5643614948021147e+01  4.8047549009774571e+01 3.2763187250407434e+01 1.5331430984581660e+01  4.2687448436248829e+01 2.4316981318582844e+01 1.6617355869233943e+01  4.9726882411583659e+01 3.0104299675949846e+01 1.0334219573443800e+01  4.8846368519855588e+01 3.0199557334505414e+01 1.1578473269761451e+01  5.0247594190607906e+01 2.3464493660252590e+01 8.9928039977725298e+00  4.5197321729377677e+01 2.8856326867953516e+01 1.5354974833959190e+01  4.6539951143335642e+01 3.1559477714973109e+01 1.4431998128078206e+01  4.4386695726259703e+01 2.8353841276985317e+01 1.5067988876313386e+01  4.5820936086561595e+01 3.0556530080869138e+01 1.4903909720373564e+01  4.6706108740481859e+01 3.1938002298075400e+01 1.4520709399435356e+01  6.5283142073256329e+01 2.6989276576405285e+01 -6.4352551109154899e+00  4.3077262446688508e+01 2.5474030617655234e+01 1.6723209383875233e+01  4.9619619903521567e+01 3.2370996802524246e+01 1.0695840768555851e+01  5.0888464451936258e+01 2.4679230376322657e+01 8.9653002369307107e+00  5.1336554380679011e+01 2.4548350605173603e+01 8.2121272580625053e+00  4.6174752475634598e+01 2.9550093966007136e+01 1.4681821160076106e+01  4.7406519012788024e+01 3.3166586176089368e+01 1.3984994003572680e+01  5.1144207670043826e+01 3.1668807178710139e+01 9.7136582117611354e+00  6.6869077735875166e+01 2.7653288764812004e+01 -7.4663951974986675e+00  6.9543615684670172e+01 3.1051605600690902e+01 -9.8765789359284177e+00  6.8021228775144579e+01 2.9500922674342018e+01 -8.5620673464063248e+00  3.0639452303417073e+01 1.4802882251592473e+01 1.4138956328167653e+01  4.9947255593943368e+01 1.6735461879007591e+01 1.6506818763881473e+01  4.8667099051146010e+01 1.9394550044084909e+01 1.7823388964789935e+01  4.8321690956198744e+01 8.5703544787977375e+00 8.4334455543776947e+00  3.7795590635880963e+01 1.8760471891963419e+01 1.7331228698776606e+01  4.3104626876770475e+01 2.1510569534047942e+01 2.0240769965556357e+01  3.7573533088700756e+01 1.8150166634522677e+01 1.7893227456416909e+01  4.1788843938677239e+01 2.1385339094676358e+01 1.9633446079356261e+01  4.2442547390820366e+01 2.1307330003630931e+01 2.0369184668120017e+01  8.4582759319291469e+01 6.4033256135184558e-01 7.1861415968637155e-01  4.8578737499422317e+01 2.4751677594206253e+01 2.3938680588032891e+01  4.9021131003451401e+01 2.4778639948965083e+01 2.3961775890868935e+01  4.8878701896213848e+01 2.5108618798675746e+01 2.3469528076373074e+01  4.8743920036773609e+01 2.4542023989910533e+01 2.3486785528300317e+01  4.8939390880795251e+01 2.5076683694327091e+01 2.3830056105001795e+01  4.8767530543786414e+01 2.4888222798323010e+01 2.3832528166173194e+01  4.8632924361332535e+01 2.5217458420766150e+01 2.3347437490446513e+01  4.8873756538039665e+01 2.5723981084083864e+01 2.3186780115055264e+01  4.9028317484910502e+01 2.5338718831688229e+01 2.3662050747212962e+01  4.9137869354047588e+01 2.5006396730310232e+01 2.4171679653881828e+01  4.5539107000978433e+01 2.4809670095415203e+01 2.0960193121841350e+01  4.7256768622017404e+01 2.5845674906720113e+01 2.0711482061599416e+01  4.7363537380760029e+01 2.4834649303715270e+01 2.0886020171597028e+01  4.6615030162864457e+01 2.4922571403419621e+01 2.0111511034483087e+01  4.6587843584946327e+01 2.5757053840287142e+01 2.0780488249610894e+01  4.6902207634422957e+01 2.6642912564181685e+01 2.0369008917216242e+01  4.6757574839909196e+01 2.6099982680001187e+01 1.9953985844622338e+01  4.6569969744906011e+01 2.6243618357733077e+01 2.0281748091458571e+01  4.7039336372871283e+01 2.5865996400261583e+01 2.0955416309378112e+01  4.7680150196831889e+01 2.5845696174093973e+01 2.1791359845674837e+01  4.8628366735345089e+01 2.7503791776315040e+01 2.1152346124696361e+01  4.9275968963442452e+01 2.8368462441188456e+01 2.0878955530307486e+01  4.8837073547637132e+01 2.7582737839161052e+01 2.1205404036109105e+01  4.8479729923156874e+01 2.7990035753390778e+01 2.0431323309070379e+01  4.9102685183212849e+01 2.8284777047775620e+01 2.0814833944567503e+01  4.9576709411899429e+01 2.9097893577767675e+01 2.0486419748237868e+01  4.8935206986463363e+01 2.8824815162130900e+01 2.0076873280817153e+01  4.8268587743489476e+01 2.8567420225158546e+01 1.9714234905164535e+01  4.8640624486485123e+01 2.8111889611221198e+01 2.0521925223606470e+01  4.8986337096621398e+01 2.7701700756038743e+01 2.1294665384232704e+01  5.1718420308204180e+01 3.2576537699658708e+01 1.9144912707448267e+01  5.2208870240453308e+01 3.2051827808521132e+01 2.0155760847732374e+01  5.1867564334795034e+01 3.2617339060144730e+01 1.9245576647986621e+01  5.1327176038075756e+01 3.1735432336444131e+01 1.9585051230955344e+01  5.2065772760096600e+01 3.2017010960703672e+01 2.0048987593082096e+01  5.2387246655744462e+01 3.1438754699014005e+01 2.0949023649186454e+01  5.1652378926056457e+01 3.1177717263708541e+01 2.0472029012430990e+01  5.0928711667230637e+01 3.0914520801676002e+01 2.0015176916459772e+01  5.1466324170001585e+01 3.1776979531128845e+01 1.9688699190091086e+01  5.2010908014445562e+01 3.2661419266240379e+01 1.9350070830059771e+01  4.9063747449076160e+01 3.4925425974494992e+01 1.4422669392258486e+01  4.9912624057077885e+01 3.5158321194201150e+01 1.3805097373379933e+01  5.0210526969228020e+01 3.5226656191244061e+01 1.2457278706543839e+01  4.9562335655814124e+01 3.4448146260955809e+01 1.2892600839322688e+01  4.9461798881821778e+01 3.6814858023652910e+01 1.2088523628718052e+01  4.9373313125097049e+01 3.5739207758117004e+01 1.3354379888897636e+01  4.8554998194004675e+01 3.7857811928622930e+01 1.3223952799445303e+01  5.0321295288498689e+01 3.8019161373367581e+01 1.1503479278407859e+01  4.9696489267350330e+01 3.6542488680750878e+01 1.3174367639254562e+01  4.9899490502596869e+01 3.5975047588019400e+01 1.4048530215863478e+01  4.9589845129526232e+01 2.5821680559334599e+01 2.3795394261605026e+01  5.0243946081821598e+01 2.6501002713662469e+01 2.3716081578297974e+01  5.0354623426709118e+01 2.5992561072197805e+01 2.4337342334184612e+01  4.9770723242941258e+01 2.5879661247853633e+01 2.3843628022673368e+01  5.0739546234804003e+01 2.6557052216688582e+01 2.4180827252773369e+01  5.0098581478543252e+01 2.6427602140891583e+01 2.3666803037770336e+01  5.0219686248274407e+01 2.5931230883786998e+01 2.4284525746892982e+01  5.0820972391935797e+01 2.6006370078900066e+01 2.4820333934811181e+01  5.0598592942477708e+01 2.7092369056853659e+01 2.3511786672573599e+01  4.9889473902996571e+01 2.5979291549588083e+01 2.3921737649141029e+01  4.3768306142999542e+01 2.5951778648721731e+01 1.5908506413298140e+01  5.1182088212017192e+01 2.5356097595008411e+01 8.3961169210205480e+00  4.6365919613008316e+01 3.1384843031484760e+01 1.4348514429076857e+01  4.3364960782981058e+01 2.7958868942920123e+01 1.6156768575960754e+01  4.3607013970334471e+01 2.7189691772261472e+01 1.5708368982477422e+01  4.6218568225311152e+01 3.1479039210323581e+01 1.3440799300758410e+01  4.7965954541609278e+01 3.4490947547406307e+01 1.3181269222150295e+01  4.6832187163398885e+01 2.4122416714442249e+01 2.2956622307549210e+01  4.8840563799694195e+01 2.3589020761011366e+01 2.1707867043525965e+01  4.8241187136291245e+01 2.4218523362474095e+01 2.2391181779018602e+01  4.9078837111371193e+01 2.3174688932669952e+01 2.2175652968222735e+01  4.6985696771688090e+01 2.4371051201387935e+01 2.2650919399571869e+01  4.6353267527542364e+01 2.4502935148490621e+01 2.2089634592476138e+01  4.8185843488073026e+01 2.4497498125765663e+01 2.2012911764735161e+01  5.2452782854062427e+01 2.4791875066207858e+01 2.3702514823640733e+01  4.8714464841095293e+01 2.5309384236019227e+01 2.3429135121978135e+01  4.8473101340483382e+01 2.5495252723651255e+01 2.2938240597003769e+01  4.8868997872095697e+01 3.0094482529238075e+01 1.8794368490157247e+01  4.9060947844202900e+01 3.0161237175518853e+01 1.8868086081290954e+01  4.8717733284052869e+01 3.0652480588869768e+01 1.7986578757240590e+01  4.8210671327883986e+01 2.9779784330957490e+01 1.8343966591873308e+01  4.7496825819369462e+01 2.9577790179624255e+01 1.7947965122864254e+01  4.8354759271794165e+01 2.9881127355549257e+01 1.8463436246391471e+01  4.8007547572830219e+01 3.0431326556906292e+01 1.7559242493700779e+01  4.8534062020305228e+01 3.1342075816321977e+01 1.7215723794409691e+01  4.8868514510368229e+01 3.0751958734785596e+01 1.8105914805170784e+01  4.9219055335193566e+01 3.0250364821976031e+01 1.8975272272967253e+01  4.8354874032064821e+01 2.0940733144401896e+01 2.0079106312434337e+01  5.1231487680099832e+01 2.0594412503239617e+01 1.9750389235287152e+01  4.9400721681254730e+01 1.9345996190555528e+01 1.8283213747450553e+01  4.3574026036254793e+01 2.1421380750831517e+01 2.0864035274642436e+01  4.2765112950650945e+01 2.1114898462357168e+01 2.0895457442233539e+01  5.0407349411205949e+01 1.6689647590410104e+01 1.6916017320489821e+01  8.5563158197426816e+01 6.0088126086608717e-01 7.0707583692382781e-01  6.2258497507966112e+01 2.8610378318674524e+01 2.9730214279357813e+01  4.6993153909639297e+01 2.9262223200995724e+01 1.7809942554846067e+01  4.7709630429008584e+01 2.8872001174339150e+01 1.8726589885195615e+01  4.7330923346929652e+01 2.9360456984399743e+01 1.7795040946617878e+01  4.7993255254854191e+01 2.9704859244182661e+01 1.8273477943994894e+01  4.8378768153487727e+01 2.9220107873408132e+01 1.9150001623781446e+01  4.7486525231644301e+01 2.8806867551399026e+01 1.8661519657662851e+01  4.7862038042537421e+01 2.8350004822128081e+01 1.9548255867942277e+01  5.1550453854201145e+01 2.6728778860243992e+01 2.4815079973960646e+01  5.0874639392271590e+01 2.6617672977195276e+01 2.4250506319976022e+01  5.0959975514400696e+01 2.6068717124577535e+01 2.4883312786156331e+01  5.1411073012050757e+01 2.6654753125636262e+01 2.4754722946959902e+01  5.2018273935590415e+01 2.7358574926070297e+01 2.4660051653178822e+01  5.1443517769934232e+01 2.7308245624823037e+01 2.4130302949225360e+01  5.1085342390962452e+01 2.6141060509206110e+01 2.4947599610088528e+01  5.1007176610898128e+01 2.6697635955109956e+01 2.4308604920708195e+01  5.0875457133468707e+01 2.7235985945563971e+01 2.3641446452742301e+01  4.6941570638360801e+01 9.6395015715928913e+00 9.2435938243744253e+00  3.1007680681582695e+01 1.6010413484125763e+01 1.5939161492712959e+01  3.1042228511741037e+01 1.4767302408446140e+01 1.4412286565775235e+01  3.8151920517951602e+01 1.8083864337780646e+01 1.8372207929928184e+01  4.8236769023418191e+01 3.3378987040515931e+01 1.5032436276072074e+01  4.9661806947449776e+01 3.4132550051054849e+01 1.5128640698899934e+01  4.9461728428734638e+01 3.4287584871798899e+01 1.4188205615236981e+01  4.9046741447401160e+01 3.3630292023758059e+01 1.4474999629029087e+01  4.9342425171518613e+01 3.4055693617791853e+01 1.5230113774623307e+01  4.8797580911089511e+01 3.4271559913202417e+01 1.4567180084258281e+01  4.9743944738348425e+01 3.4881997125605281e+01 1.4822463862603293e+01  5.0138705294837102e+01 3.4524156999453865e+01 1.5688306430080067e+01  4.9059437139771219e+01 3.4386219668600994e+01 1.4715745202247140e+01  5.0489483802911565e+01 3.2502707878070993e+01 9.9244555034898649e+00  5.2115118125307106e+01 2.5438531354008830e+01 7.7072009947185638e+00  7.2356314773630771e+01 3.7186323359664698e+01 -1.2760314671641478e+01  6.8596540844647166e+01 3.1543150822435383e+01 -9.3808576568970690e+00  5.1293033379067566e+01 2.7881759512291367e+01 2.3404573838485369e+01  5.0743145285851924e+01 2.7160621458109908e+01 2.3574649793822534e+01  4.9110403897184455e+01 3.1615682553157910e+01 1.1722986930760857e+01  4.8731794099761437e+01 2.8680973386840776e+01 1.0687463168005001e+01  6.3574643703114752e+01 2.5777840578107085e+01 -5.3559133149347975e+00  5.0701473308857246e+01 4.3641453280049376e+01 9.6192583246900725e+00  6.7284927957840551e+01 2.7344964685077212e+01 -8.5725964570021596e+00  5.0683333892505651e+01 4.0423772024391674e+01 8.4974540404241914e+00  4.9025337005291554e+01 3.4758567652880451e+01 1.2099315178238070e+01  5.1504304125438949e+01 3.3138673021092849e+01 1.8352426695661276e+01  5.0980808174585164e+01 3.2261103104647397e+01 1.8706576148557438e+01  5.0248717793648794e+01 3.1970646166011676e+01 1.8283330843962808e+01  5.1123008166960680e+01 3.2307742278851059e+01 1.8813229837791695e+01  4.8295353847224106e+01 2.5434010993304746e+01 2.2969671840865821e+01  4.8741217094849453e+01 2.5479015636847855e+01 2.2982999391129251e+01  4.8599276999171785e+01 2.4846781818575050e+01 2.3034472421658936e+01  4.8373240714181037e+01 2.5103940868397707e+01 2.2561138255452246e+01  4.8407020263343703e+01 2.5468706401081768e+01 2.2896459124069271e+01  4.8618690918922738e+01 2.5140515522423453e+01 2.3260332265489666e+01  4.8074776437359574e+01 2.5364244897803378e+01 2.2002704795260215e+01  4.7751440175601957e+01 2.5102533351983737e+01 2.2540621323840782e+01  4.8172799011182711e+01 2.5738766329362104e+01 2.2418097376308889e+01  4.7429560187711132e+01 2.5296264421036053e+01 2.2079228821356889e+01  4.7729581172974321e+01 2.6041123043119136e+01 2.1795207160575380e+01  4.8463966136237403e+01 2.5766400428230529e+01 2.2399566276175086e+01  4.8189921975559550e+01 2.6105269081979017e+01 2.1807914674106648e+01  4.8127385800494146e+01 2.5753468015237033e+01 2.2306007604184611e+01  4.8342303746547600e+01 2.6368186855690876e+01 2.2009877691585924e+01  4.8626022782925304e+01 2.6011965414665692e+01 2.2586097589939271e+01  4.8099863314305935e+01 3.1086335028177558e+01 1.7081577574159052e+01  4.8393298398429003e+01 3.1167321979263146e+01 1.7071203891201918e+01  4.7857329704128851e+01 3.0256399730650962e+01 1.7424224868451272e+01  4.8513563489003118e+01 3.0602103280751702e+01 1.7903889653816577e+01  4.8570437228953971e+01 2.9297950135234693e+01 1.9224431440669157e+01  4.8102367704902271e+01 2.8433413612183546e+01 1.9604039860771547e+01  4.8753677271461278e+01 2.8746492486706586e+01 2.0001510850456238e+01  4.9241651950938163e+01 2.9594158069310101e+01 1.9643967518714415e+01  4.8658727473184015e+01 2.0237866675472834e+01 2.0345150408195003e+01  5.1572284055809249e+01 2.0480723691333612e+01 2.0301070439394557e+01  4.9646193521237471e+01 1.9125104990026777e+01 1.8488021771716003e+01  4.3697573859118158e+01 2.1392648238656069e+01 2.1528952901534794e+01  4.2673634737056396e+01 2.0736557573873757e+01 2.0988558183861670e+01  4.9703485373800952e+01 1.9042145387643142e+01 1.9542524116300680e+01  8.6157410240652851e+01 6.4584564418994306e-01 9.1063821794410427e-01  6.2336805710920871e+01 2.8840768622321011e+01 2.9861446339937146e+01  5.2828104400628476e+01 2.4604513461325755e+01 2.4240972197984949e+01  4.9408387653577414e+01 2.9653390550066643e+01 1.9735839938886546e+01  4.8721392059828268e+01 2.9390089459331090e+01 1.9324382766859738e+01  4.7877553502581264e+01 2.9011293254755621e+01 1.8851536807888763e+01  4.8826639537553689e+01 2.4232788832936869e+01 2.3868758884304430e+01  4.8931850394789194e+01 2.4672365606353182e+01 2.4043545185748020e+01  4.9064392310307589e+01 2.4539370650556613e+01 2.4546217826798376e+01  4.8860379207725110e+01 2.4590085527213894e+01 2.4198034291519068e+01  4.9370072900290339e+01 2.5311835062556714e+01 2.3920862867863619e+01  4.9164757810369530e+01 2.5252081897363219e+01 2.3897516693395939e+01  4.9236872527648799e+01 2.5712223216469067e+01 2.3392488141279866e+01  4.9333927584906476e+01 2.5822528927521653e+01 2.3496390173145016e+01  4.9462075901405967e+01 2.5427480139684690e+01 2.4016611154328235e+01  4.9716335720264361e+01 2.4871377096641197e+01 2.4874092926763868e+01  5.0413960579154626e+01 2.4911773465603311e+01 2.5475785899017893e+01  5.0415901854267794e+01 2.5473791751628344e+01 2.4914704109832392e+01  4.9892246882406589e+01 2.4920448605881173e+01 2.4923736550169821e+01  5.0278379592709051e+01 2.4861118781623638e+01 2.5413404573553102e+01  5.0850429939769789e+01 2.5423650837103278e+01 2.5425549308546870e+01  5.0276337455989641e+01 2.5408077496095977e+01 2.4863369967007490e+01  5.0824553047958780e+01 2.4820627413275027e+01 2.6008404958128423e+01  5.0004681508537189e+01 2.5008443233454226e+01 2.5008777950298882e+01  3.0776521861082788e+01 -1.4912678499159147e+01 -1.4600237313405772e+01  4.6923670008909824e+01 -9.2797099543215538e+00 -9.0149295824546325e+00  2.7024834454373451e+01 -8.2058415041919283e-02 -6.1723710789588757e-02  2.7357636991468503e+01 -1.0534481915764404e-01 -1.1619979480163961e-01  6.2850002697389957e+00 4.5052460613365153e-02 1.4733399916595930e-01  1.9735441222154844e+01 1.1269890531799229e+01 1.0849587861077021e+01  1.9635685365034345e+01 1.0954065333129797e+01 1.1134384339116195e+01  2.0044796889310806e+01 -1.0812170545389719e+01 -1.0546283145898260e+01  4.7026933723909707e+01 2.9818010276269622e+01 1.6792136263352376e+01  4.6495601433475137e+01 2.8865242564528440e+01 1.7166851128515709e+01  4.5790258528815620e+01 2.9095222782482768e+01 1.6756299401064460e+01  4.6587562080306974e+01 2.9162010171111323e+01 1.7387581580697212e+01  4.6328102450244593e+01 2.9905756293631750e+01 1.6285336757621632e+01  4.7148087466739582e+01 3.0095287043283069e+01 1.7005301760564766e+01  5.0171555546753737e+01 2.8109506709649089e+01 2.2067866114205177e+01  5.0325251036189499e+01 2.8181249893248172e+01 2.2135616566466616e+01  4.9584838368657188e+01 2.7906662277810337e+01 2.1652743003855878e+01  4.9854600854182095e+01 2.7452470363540918e+01 2.2375635530724612e+01  4.9544602226785500e+01 2.6861394733429655e+01 2.2693062250399230e+01  4.9719805237138914e+01 2.7987216763129975e+01 2.1729981479434926e+01  4.9978024928057529e+01 2.7529410161262557e+01 2.2443257623144849e+01  4.9287527269166738e+01 2.7274232378521436e+01 2.2008377431536150e+01  5.0466971725766193e+01 2.8260916343243895e+01 2.2208084843333399e+01  4.6827519871485869e+01 2.2945631835860528e+01 2.4112180667777817e+01  4.8680113872740051e+01 2.2909444377657060e+01 2.4119887258182398e+01  4.9067445994993101e+01 2.2122379946750382e+01 2.3127424363545018e+01  4.9225121312996876e+01 2.2272478321773221e+01 2.3188270475206771e+01  5.2869924560245984e+01 2.4553228995054617e+01 2.4752055348863326e+01  4.8958176310934597e+01 2.3999732542953172e+01 2.5196733284925724e+01  4.9123059130923714e+01 2.4164986774635359e+01 2.5039776533445252e+01  5.1208433166480368e+01 2.4818769908216876e+01 2.5166840844513864e+01  5.2511630223994104e+01 2.3882316342436962e+01 2.4963343770844947e+01  4.8946606290239934e+01 2.3858174799615576e+01 2.5100206744654884e+01  4.7594640654222310e+01 2.4585910597871084e+01 2.1403350171749342e+01  4.7702876613769838e+01 2.5595977608406628e+01 2.1409149920835166e+01  4.7991115572223052e+01 2.5518745336666679e+01 2.2255902943411318e+01  4.8032182524720881e+01 2.3792566355692752e+01 2.0773675263676843e+01  4.6335937917123019e+01 2.4705619025145598e+01 2.1665858464090071e+01  4.8464450435199822e+01 2.3429757845117038e+01 2.1373284490494420e+01  5.1681980870469033e+01 2.4809992153463156e+01 2.2898695105086247e+01  4.7938053214341139e+01 2.5510926908301283e+01 2.2457952171708691e+01  4.9046721889473375e+01 2.6101161300821953e+01 2.2810002609751372e+01  4.8830828747119057e+01 2.6026875785552186e+01 2.2789525914721892e+01  4.9220304794616972e+01 2.6682282674945345e+01 2.2564899998793841e+01  4.8791072352404427e+01 2.6467814073457163e+01 2.2192242130089852e+01  4.8146226305820214e+01 3.1620095108403351e+01 1.6120994943163169e+01  4.7756013333272556e+01 3.1552557353174993e+01 1.6174930701490279e+01  4.7587015330971532e+01 3.0751271971644979e+01 1.6445794767316716e+01  5.1089604987472249e+01 2.8423571770935794e+01 2.2660837049051185e+01  