<?xml version="1.0"?>
<VTKFile type="UnstructuredGrid"  version="0.1"  >
<UnstructuredGrid>
<Piece  NumberOfPoints="5935" NumberOfCells="26642">
<Points>
<DataArray  type="Float64"  NumberOfComponents="3"  format="ascii">-50 -10.414456 14.585544  -50.6665165 -9.735582749999999 13.9048575  -51.33333325 -10.71845175 13.96425975  -50.66561325 -10.310429 13.439571  -51.3312265 -10.206402 12.293598  -51.99984975 -10.0395785 13.28357325  -51.33212975 -9.63155575 12.7588845  -51.9989465 -10.61442475 12.81828675  -52.66666650000001 -11.0224475 13.3429755  -51.333033 -9.0567095 13.224171  -52.666066 -7.698963 11.862798  -53.33288275 -8.681832 11.92220025  -52.66636625 -9.360705250000001 12.60288675  -52.66516275 -8.273809249999999 11.3975115  -52.6642595 -8.8486555 10.932225  -53.3319795 -9.25667825 11.45691375  -52.665463 -9.935551499999999 12.13760025  -53.33318300000001 -10.34357425 12.662289  -53.99969950000001 -9.664701000000001 11.9816025  -51.99864625 -8.9526825 12.078198  -51.997743 -9.52752875 11.6129115  -51.9995495 -8.37783625 12.5434845  -51.33333325 -11.00314975 14.663517  -50.80143675 -11.5351475 14.66341575  -51.6028735 -12.655839 14.7412875  -52.13477 -12.12384125 14.74138875  -52.13477 -11.83914325 14.0421315  -52.66666650000001 -11.3071455 14.04223275  -52.66666650000001 -11.5918435 14.74149  -50 -9.576753499999999 14.00209075  -50 -10.17434625 13.5685775  -50 -9.934236500000001 12.551611  -50 -9.33664375 12.98512425  -50.6665165 -9.495473 12.887891  -50.6665165 -8.89788025 13.32140425  -50 -8.739051 13.4186375  -50 -7.063646 12.251731  -50.6665165 -7.22247525 12.15449775  -50.6665165 -8.060177750000001 12.737951  -50.6665165 -7.820068 11.7209845  -51.333033 -8.57649 11.190238  -51.333033 -7.97889725 11.62375125  -51.333033 -8.81659975 12.2072045  -51.333033 -8.219007000000001 12.64071775  -51.333033 -7.381304500000001 12.0572645  -50 -7.66123875 11.81821775  -50.6665165 -8.6577705 12.30443775  -50.6665165 -8.41766075 11.28747125  -50 -8.258831499999999 11.3847045  -50 -8.498941250000001 12.401671  -50 -9.096534 11.96815775  -50 -7.9013485 12.83518425  -50 -9.454017 10.517678  -50.6665165 -9.25536325 11.8709245  -50 -8.85642425 10.95119125  -50.6665165 -9.0152535 10.853958  -50 -9.694126750000001 11.5346445  -51.9995495 -7.540133750000001 11.96003125  -51.9995495 -8.137726499999999 11.526518  -50.66561325 -10.07031925 12.4226045  -50.66561325 -9.8302095 11.405638  -51.33212975 -9.391446 11.741918  -51.99864625 -8.71257275 11.0612315  -55.333333 -8.31115 11.442237  -54.66651625 -8.15810325 11.54737725  -54.66651625 -8.987925499999999 11.71191975  -54.66561300000001 -8.7329495 11.08209075  -53.997893 -9.154748999999999 10.7219445  -53.99969950000001 -8.834878750000001 11.81706  -53.99879625000001 -8.579902749999999 11.187231  -53.99879625000001 -9.409725 11.3517735  -53.99969950000001 -8.0050565 11.6525175  -53.3319795 -8.426855999999999 11.29237125  -53.33107625 -9.001702249999999 10.82708475  -53.33288275 -7.852009750000001 11.75765775  -53.205797 -12.768859 17.025344  -51.872489 -12.1801105 16.94740075  -52.40434775 -12.18025825 16.415394  -52.40434775 -11.66218775 16.9334645  -51.60289849999999 -10.5555165 16.841585  -51.07103975 -11.59150975 16.33745075  -51.07103975 -11.07343925 16.85552125  -51.60289849999999 -11.073587 16.3235145  -51.60289849999999 -11.5916575 15.805444  -50.539181 -11.591362 16.8694575  -52.67393824999999 -12.76871125 17.55735075  -52.14207949999999 -12.7685635 18.0893575  -51.34063025 -12.17996275 17.4794075  -51.87248899999999 -11.66204 17.46547125  -51.078362 -12.768268 19.153371  -50.8087715 -12.179815 18.01141425  -50.8087715 -11.6617445 18.52948475  -51.34063025 -11.66189225 17.997478  -51.07103975 -10.55536875 17.37359175  -50.539181 -10.555221 17.9055985  -50.539181 -11.0732915 17.387528  -51.61022075 -12.76841575 18.62136425  -50 -8.342174 16.657826  -50 -8.8602445 16.1397555  -50.2695905 -9.966768 16.76364175  -50.80144925 -9.44884525 16.7497055  -50.2695905 -10.4848385 16.24557125  -50.80144925 -9.96691575 16.231635  -50 -9.378315000000001 15.621685  -50.2695905 -9.4486975 17.28171225  -50 -9.896385500000001 15.1036145  -50.2695905 -11.002909 15.72750075  -50.80144925 -10.48498625 15.7135645  -50.80144925 -11.00305675 15.195494  -43.13899499999999 -14.784681 21.076324  -43.385859 -15.37129125 22.24284975  -43.91764675 -15.3717125 21.71064075  -43.9178565 -14.839124 22.2430195  -44.6962985 -15.958744 22.3449575  -42.60720724999999 -14.78425975 21.608533  -42.85386149999999 -15.9034585 22.24268  -42.0754195 -14.7838385 22.140742  -50.6665165 -8.18137125 15.459069  -51.33333325 -8.61821625 16.030604  -50.6665165 -8.69944175 14.9409985  -51.33333325 -9.13628675 15.5125335  -52.66666650000001 -8.894258499999999 15.403382  -51.99984975 -8.457413499999999 14.831847  -51.333033 -8.0205685 14.260312  -51.33333325 -10.17242775 14.4763925  -51.33333325 -9.65435725 14.994463  -51.99984975 -9.4935545 13.795706  -51.99984975 -8.975484 14.3137765  -52.66666650000001 -9.412329 14.8853115  -52.66666650000001 -9.9303995 14.367241  -50.6665165 -9.217512249999999 14.422928  -51.333033 -8.538639 13.7422415  -55.333333 -9.446343000000001 14.148938  -54.66651625 -9.009498000000001 13.577403  -53.99999975 -9.688371249999999 14.2580895  -53.99999975 -9.170300749999999 14.77616  -53.33318300000001 -8.733455750000001 14.204625  -53.33318300000001 -9.251526250000001 13.6865545  -53.99969950000001 -8.572653000000001 13.005868  -53.33288275 -8.135808000000001 12.434333  -52.66636625 -8.81468125 13.1150195  -52.66636625 -8.296610749999999 13.63309  -51.9995495 -7.859765749999999 13.061555  -46.82368 -14.895272 21.281047  -46.04095625000001 -13.784126 21.17491675  -46.5674135 -13.7813655 20.65122  -46.567498 -13.2489925 21.18350875  -46.31114700000001 -12.667459 20.021393  -45.78468975000001 -12.6702195 20.54508975  -46.31123150000001 -12.135086 20.55368175  -45.25823250000001 -12.67298 21.0687865  -46.8237645 -14.362899 21.81333575  -46.823849 -13.830526 22.3456245  -45.798614 -10.439646 18.761739  -45.52842325 -11.556313 19.91526275  -45.27215675 -10.4424065 19.28543575  -46.054965 -11.0211795 19.92385475  -44.7456995 -10.445167 19.8091325  -46.0548805 -11.5535525 19.391566  -46.31131600000001 -11.602713 21.0859705  -49.754252 -12.1821125 19.063636  -49.75419725 -12.7143515 18.531452  -50.286069 -12.18234875 18.531583  -49.493776 -11.5964295 17.909795  -48.43008725 -12.128196 18.441717  -48.961959 -11.59619325 18.441848  -48.96190425 -12.12843225 17.909664  -48.4300325 -12.660435 17.909533  -48.430142 -11.595957 18.973901  -50.01467325 -13.3000345 19.685293  -50.54654499999999 -12.76803175 19.685424  -50.014728 -12.7677955 20.217477  -48.69056325 -12.713879 19.595558  -49.222435 -12.18187625 19.595689  -49.48285625 -13.29979825 20.217346  -48.9509845 -13.831801 20.217215  -50.54649025 -13.30027075 19.15324  -50.0146185 -13.8322735 19.153109  -49.22238025 -12.71411525 19.063505  -49.2223255 -13.24635425 18.531321  -49.4828015 -13.83203725 19.685162  -48.950875 -14.896279 19.152847  -48.69050850000001 -13.246118 19.063374  -48.69045375 -13.778357 18.53119  -49.48274675 -14.36427625 19.152978  -48.95092975 -14.36404 19.685031  -48.951094 -12.767323 21.281583  -48.690618 -12.18164 20.127742  -48.95103925 -13.299562 20.749399  -49.482911 -12.76755925 20.74953  -47.90919 -10.424591 16.666219  -48.16966600000001 -11.010274 17.82006  -48.16961125 -11.542513 17.287876  -48.701483 -11.01051025 17.288007  -55.333333 -5.753688 12.918787  -55.333333 -6.393053500000001 12.5496495  -54.66651625 -6.24000675 12.65478975  -54.66651625 -7.163170500000001 12.9623275  -54.66651625 -7.802536 12.59319  -53.99969950000001 -7.64948925 12.69833025  -53.99969950000001 -6.7263255 12.3907925  -54.66651625 -6.879372249999999 12.28565225  -55.333333 -7.032419 12.180512  -55.333333 -6.676851750000001 13.22632475  -54.66651625 -8.08633425 13.26986525  -55.333333 -7.6000155 13.5338625  -55.333333 -7.31621725 12.85718725  -54.66651625 -7.51873775 11.91651475  -54.66651625 -8.4419015 12.2240525  -53.99969950000001 -7.365691 12.021655  -53.99969950000001 -8.28885475 12.32919275  -55.333333 -8.59494825 12.11891225  -55.333333 -7.95558275 12.48804975  -54.66651625 -8.72569975 12.90072775  -55.333333 -8.239381 13.164725  -55.333333 -8.8787465 12.7955875  -55.333333 -7.671784499999999 11.8113745  -55.333333 -9.16254475 13.47226275  -55.333333 -8.52317925 13.84140025  -53.33288275 -7.21264425 12.12679525  -55.333333 -10.641026 17.025641  -54.80145025 -9.85481725 17.35364825  -55.333333 -9.854945000000001 16.82163775  -53.99999975 -10.066313 16.93368725  -52.66666650000001 -9.4916 16.8417335  -53.46811700000001 -9.280104250000001 17.2616945  -53.99999975 -9.280232 16.729684  -55.333333 -9.068864 16.6176345  -54.80145025 -9.068736250000001 17.149645  -54.2695675 -9.0686085 17.6816555  -54.80145025 -10.64089825 17.5576515  -53.46811700000001 -10.06618525 17.46569775  -54.2695675 -10.6407705 18.089662  -54.2695675 -9.854689499999999 17.88565875  -53.205802 -10.640515 19.153683  -53.73768475 -9.85456175 18.41766925  -52.93623425 -9.2799765 17.793705  -52.93623425 -10.0660575 17.99770825  -53.46811700000001 -8.49402325 17.05769125  -52.66666650000001 -8.705518999999999 16.63773025  -52.66666650000001 -7.919438 16.433727  -52.4043515 -10.06592975 18.52971875  -52.13478375 -8.70539125 17.16974075  -52.13478375 -9.491472250000001 17.373744  -51.602901 -9.4913445 17.9057545  -53.73768475 -10.64064275 18.6216725  -51.33333325 -8.130806 16.5457765  -50.8014505 -8.91675925 17.28179025  -51.33333325 -8.916886999999999 16.74977975  -55.333333 -7.496702 16.209628  -54.80145025 -8.282655249999999 16.94564175  -53.99999975 -7.708069999999999 16.3216775  -53.99999975 -8.494151 16.52568075  -55.333333 -8.282783 16.41363125  -45.50851975 -14.3043435 21.18713625  -45.75998925 -15.427008 21.81300225  -46.2919395 -14.89484575 21.813214  -45.760199 -14.8944195 22.345381  -44.444829 -14.8360795 21.7190915  -45.22824875 -15.42658175 22.34516925  -48.162809750000
[...]
<PointData  Vectors="u"> 
<DataArray  type="Float64"  Name="u"  NumberOfComponents="3" format="ascii">1.1865748869035235e+02 -1.5338812900873617e+02 1.8494105591015443e+02  1.8318353855177314e+01 -1.2104171451798364e+02 1.6000519367196011e+02  4.9747580322138774e+01 -1.0953773757649016e+02 1.3785709518633988e+02  1.1002245514590417e+01 -1.2935534362057658e+02 1.5929805389917212e+02  2.0038773944670464e+01 -1.2189555950564477e+02 1.4419342109624438e+02  2.8095555557860603e+01 -1.0581688887752077e+02 1.3788748417929256e+02  1.8489636238777464e+01 -1.1531356067484131e+02 1.4863819918748001e+02  2.9365623867759865e+01 -1.1092232069159660e+02 1.3288706054626473e+02  3.6827985834458289e+01 -9.6442904597085928e+01 1.1795771238363992e+02  1.7369555182640276e+01 -1.0845817631577856e+02 1.5263835588657165e+02  9.5592824207513942e+00 -1.0952633167720393e+02 1.6721898638456389e+02  1.0775228449322018e+01 -1.1122459657494069e+02 1.5323997386630657e+02  1.6700252925954295e+01 -1.0646485870807179e+02 1.4301673149427285e+02  1.0656272574558557e+01 -1.1848883283662344e+02 1.6137328501722874e+02  1.0960116109310462e+01 -1.2623802687030472e+02 1.5545228369758229e+02  1.1137959416961692e+01 -1.1849598750028325e+02 1.4713305827704596e+02  1.7641419576116494e+01 -1.1296602714135814e+02 1.3788141271966569e+02  1.9482344668968906e+01 -1.0193117532977918e+02 1.2639842447737381e+02  9.8893840830691904e+00 -1.0995981124557065e+02 1.3775372706788480e+02  1.2618762221384120e+01 -1.1361791055812121e+02 1.5147030423245343e+02  1.3355039808732414e+01 -1.2109687131221027e+02 1.4638231131956977e+02  1.1814022447889329e+01 -1.0633567511354120e+02 1.5662470593949462e+02  7.2666526896066770e+01 -9.4795978150968722e+01 1.2385685909323924e+02  1.0056972060185427e+02 -9.0797659280053082e+01 1.1449776841043945e+02  8.8357380609946631e+01 -7.6578900928156273e+01 9.1826025834803374e+01  7.4692634063508507e+01 -7.4599224280050279e+01 9.4484700778057487e+01  6.5645195671263338e+01 -8.7881758193388464e+01 1.0614800673880015e+02  4.8285718614045436e+01 -8.4499446555267866e+01 1.0823111703207141e+02  5.9011021832589108e+01 -7.1998686233412485e+01 9.7490872517990525e+01  -9.0158355787478364e+00 -1.2926310974613679e+02 1.6874142694915113e+02  -2.4620390963670079e+01 -1.4304633002150183e+02 1.7611740466479324e+02  4.9568349959550622e+00 -1.2481574610702722e+02 1.5231882482346154e+02  1.1514434652656256e+00 -1.1775542098232179e+02 1.5574728407483838e+02  1.1128793795524718e+01 -1.1830878580398958e+02 1.5360342534114559e+02  1.0202602203161097e+01 -1.0996928140826368e+02 1.5687446670462515e+02  4.3327657230395396e+00 -1.0901594780819356e+02 1.5868213538174166e+02  3.2247847814943020e-01 -1.0307995423859140e+02 1.7186518467489108e+02  4.1078642503372294e+00 -1.0502957154778645e+02 1.7016112406578742e+02  4.9375997824490581e+00 -1.0659656490431468e+02 1.6203731018827241e+02  4.5055044786777350e+00 -1.1375399446212731e+02 1.6448024774973169e+02  9.1053524499999927e+00 -1.2302012554719380e+02 1.5808264153941829e+02  8.2846436110645811e+00 -1.1505048754368062e+02 1.6349414109029902e+02  1.0093683089278759e+01 -1.1444605830044124e+02 1.5469066324270568e+02  9.5823008119998772e+00 -1.0669248328913562e+02 1.5941079416785519e+02  7.6004580128445820e+00 -1.0679238771186930e+02 1.6944722493881005e+02  2.0701422235770850e-01 -1.1178095687505724e+02 1.6576292335577261e+02  5.4969266768802445e+00 -1.1433669047934161e+02 1.5759832575944685e+02  4.9713048723311788e+00 -1.2083451332988716e+02 1.5913066493803584e+02  2.9282067030569275e-01 -1.1953196535961879e+02 1.6062819215099836e+02  -2.1274659547891619e+00 -1.1373551993685750e+02 1.5983377433002511e+02  -1.4885884213935574e-01 -1.2046226731701609e+02 1.5427990783833800e+02  -2.1896203538772932e-02 -1.0511495545745805e+02 1.6320998712251941e+02  2.9450927632706331e-01 -1.3484439659243137e+02 1.4854223116343368e+02  5.1453011225784975e+00 -1.2194647653551625e+02 1.5294605937090202e+02  8.8761854410764701e-02 -1.2699766166237687e+02 1.5499037494695028e+02  5.5309541949969425e+00 -1.2860428801568190e+02 1.5304710337901187e+02  -6.5570480939047171e-01 -1.2795406723892667e+02 1.4940927334152005e+02  9.8868229120707447e+00 -1.0821089180018144e+02 1.6846791829705518e+02  1.1317006051291493e+01 -1.1686242289555078e+02 1.6266535615938139e+02  1.3874630528083348e+01 -1.2425871758243777e+02 1.4926952011682172e+02  5.5862988107803160e+00 -1.2895581634826408e+02 1.4761662882385369e+02  1.1233793590219584e+01 -1.2179402125114181e+02 1.4984754246521265e+02  1.1411304663765478e+01 -1.2492677026057773e+02 1.5691170551039036e+02  8.3178859242854952e-02 -1.1644734563538086e+02 1.6282915900933429e+02  4.1373979300108816e+00 -1.1459031701503720e+02 1.6436481640094311e+02  4.4352615431324853e+00 -1.1316082149607264e+02 1.4907484657624676e+02  4.5214684531848155e+00 -1.2369222413026989e+02 1.5753075789657828e+02  8.1772342239284708e+00 -1.2931876417279699e+02 1.5249717888798912e+02  8.2050450035630202e+00 -1.1201123900090548e+02 1.5124146968482987e+02  8.0239528350320182e+00 -1.2141678313424821e+02 1.5877649202042815e+02  8.8061842817176146e+00 -1.1941679455404045e+02 1.4513698051352296e+02  7.2356275486584645e+00 -1.1262889962826485e+02 1.6542540925770891e+02  1.0887768065297825e+01 -1.2004121779711775e+02 1.6005106584218404e+02  1.1300171862184156e+01 -1.2746904588867882e+02 1.5410078284018016e+02  9.8009754908401092e+00 -1.1137099362020112e+02 1.6682924514448922e+02  9.3203310518880471e+01 -3.0965293784870752e+01 6.0855385621345548e+01  9.4186419461900940e+01 -4.7167637922573718e+01 7.8698731214202866e+01  8.5652420446299814e+01 -4.8621931015424202e+01 7.8555743608512302e+01  8.4153840808662281e+01 -4.4050870103285590e+01 8.0663123406465104e+01  8.5126520809641320e+01 -5.8725529565299865e+01 1.0252352660318374e+02  9.5983722289923080e+01 -6.2486496842405003e+01 9.4834745127438850e+01  9.4328272651689545e+01 -5.8735205675721815e+01 9.6574031234747892e+01  8.7261621453383910e+01 -6.2354057757338616e+01 9.9601598260339841e+01  8.6607315492565220e+01 -6.8026010134998472e+01 9.8167298968763816e+01  1.0287320543865948e+02 -5.7494074143996009e+01 9.0824113460651645e+01  1.0004395986154873e+02 -3.3969717235509336e+01 6.6625219678096016e+01  1.0449130326170089e+02 -3.5525920317054521e+01 6.9046860853917352e+01  1.0045117943724789e+02 -4.6461335371801688e+01 7.9703909025368375e+01  9.3065869211879843e+01 -4.3158994567312078e+01 8.1902351675382974e+01  1.0823169543897848e+02 -3.6168883814762040e+01 7.1856588660770626e+01  1.0430338204711570e+02 -4.3741424944124667e+01 7.7913916651978212e+01  1.0318282064454552e+02 -4.0290340868369924e+01 8.0486979120287216e+01  9.9378828785252693e+01 -4.1940649496234101e+01 8.0984423536494731e+01  9.3675857012612909e+01 -5.3664302361599269e+01 9.9061206544527892e+01  1.0047449015005762e+02 -4.9248352343207763e+01 9.4292303962122872e+01  1.0171975137314405e+02 -5.3746376754685045e+01 9.3576046159323582e+01  1.0714271066486965e+02 -3.5879310099148107e+01 7.1099370196497475e+01  1.0003444172750474e+02 -1.3021634330662900e+02 1.9206892653935446e+02  1.1421786362119551e+02 -1.4945877171218194e+02 2.0395901273822261e+02  1.1855825658422525e+02 -6.5727450257191109e+01 1.0933676926208761e+02  9.7340837665784008e+01 -7.1152779718685025e+01 1.2295834565716839e+02  1.1928956484701202e+02 -7.0158322273261703e+01 1.0916998909714042e+02  9.8606458166286217e+01 -8.2418771305586475e+01 1.2751138299970202e+02  1.1081106187564255e+02 -1.4283427323429444e+02 1.9248639893652893e+02  1.1280683874824459e+02 -6.2630670797532574e+01 1.1513994699360289e+02  1.2505000856634054e+02 -1.5219606702271960e+02 1.9179524677892391e+02  1.2178764587560596e+02 -7.2584982331077441e+01 1.0661440659602502e+02  9.7582531035731677e+01 -8.2091587316367168e+01 1.2141803513456385e+02  9.8866498044809944e+01 -9.1863367030147231e+01 1.2223404252458694e+02  9.2769518389773893e+01 -3.6915565120813639e+01 5.5950378917526713e+01  9.1277899019291723e+01 -3.5655962361476639e+01 5.5671834024137198e+01  9.3036504228985123e+01 -3.6885113657498614e+01 5.6226813583844077e+01  9.2444595162437551e+01 -3.5058761624305724e+01 5.7451742500267613e+01  9.3335764468830519e+01 -3.6844227518341185e+01 5.6478717346403656e+01  9.1025426770375887e+01 -3.5690870996627389e+01 5.5395416306101808e+01  9.0099906844057969e+01 -3.6171645217183453e+01 5.3957612154674329e+01  8.9331659156029446e+01 -3.4532102988532017e+01 5.4835919397822202e+01  1.5406389726049367e+01 -1.0063156417783998e+02 1.6456598859752737e+02  4.6667139811946235e+01 -8.5307661286497634e+01 1.4659696560372095e+02  1.4580527641504268e+01 -1.0764235504797783e+02 1.6352271461320794e+02  4.9074893251034766e+01 -9.2828518021655213e+01 1.4604023591294555e+02  3.4527417235625954e+01 -7.2655558274846413e+01 1.3018491254683769e+02  2.5832771855618649e+01 -8.5325226535539542e+01 1.4582596066793991e+02  1.6973742149600678e+01 -9.3910200929817321e+01 1.5732171998889231e+02  4.9087305291222130e+01 -1.0440828835351286e+02 1.4204305462549780e+02  4.8678799677667158e+01 -9.8802748564802826e+01 1.4414968520850513e+02  2.7164701916066480e+01 -9.8705112795744697e+01 1.4096671572751185e+02  2.6820789105085879e+01 -9.2466444756413040e+01 1.4401879513089563e+02  3.4510607522387268e+01 -7.9282155643777457e+01 1.2852000867731209e+02  3.5166632256202966e+01 -8.4982644490908740e+01 1.2573632579420521e+02  1.0022708781562704e+01 -1.1636599470359593e+02 1.6418020456892876e+02  1.6607001502542534e+01 -1.0103779747649912e+02 1.5538766077637951e+02  -4.4567592506866305e-01 -7.4421038858033256e+01 1.2118090210770002e+02  5.9796608131015230e+00 -8.5116607982985030e+01 1.3399456658566925e+02  1.7450865118623639e+01 -7.6904687052241854e+01 1.2060397132702900e+02  1.7970265104073736e+01 -7.0462343478084748e+01 1.2299861985161979e+02  1.7779950195164773e+01 -8.1605713304007480e+01 1.3700192027513512e+02  1.8645722122461947e+01 -8.8752317263769513e+01 1.3450299739242325e+02  9.2042334570146132e+00 -9.4578032474225935e+01 1.4634515264839268e+02  9.8732484169692416e+00 -1.0240461751484354e+02 1.5729065283078711e+02  1.6285074329074423e+01 -9.9060848495622963e+01 1.4691540467927805e+02  1.5785548078303176e+01 -9.1407858157679058e+01 1.4982266958127087e+02  1.1672302450951662e+01 -9.8066170477840032e+01 1.5947051865292997e+02  9.9850848481232376e+01 -3.8123492541047817e+01 6.1687827889940849e+01  9.8666758885391715e+01 -3.6169845482493436e+01 6.2905092887291673e+01  1.0071598257078345e+02 -3.7590530869107425e+01 6.3797930237920667e+01  9.9796078203063331e+01 -3.5287388688460574e+01 6.5189461215280332e+01  1.0184276283204113e+02 -3.7088765134136040e+01 6.6072840153492379e+01  9.9705401776293328e+01 -3.5576429931416868e+01 6.4975758344394208e+01  1.0083322670000595e+02 -3.4679245644039682e+01 6.7432535716169880e+01  9.7626719157829982e+01 -3.4213668656806753e+01 6.3950411342289556e+01  9.9053954713011535e+01 -3.5931510021475503e+01 6.3133846187217422e+01  9.8141049133102712e+01 -3.3699826349785447e+01 6.4374738309379794e+01  1.0562517108194574e+02 -3.5215855426383982e+01 7.0379764062872482e+01  1.0102203195048446e+02 -3.4833422140337078e+01 6.7064079043567077e+01  1.0255691386212045e+02 -3.3703541509634498e+01 6.8953701901903798e+01  1.0236289449909825e+02 -3.3939884901370860e+01 6.9762520919229019e+01  1.0003964782034610e+02 -3.2387226197181320e+01 6.7641408770086855e+01  1.0352184101555457e+02 -3.6447476935412716e+01 6.8407891012250445e+01  9.9723213086619864e+01 -3.2306863179053288e+01 6.8673542810364467e+01  1.0694870544071095e+02 -3.9709149414802155e+01 7.5480342684131116e+01  1.0803606014729398e+02 -4.2984374412414184e+01 7.3867011237258978e+01  1.0644107418248696e+02 -4.2307142461241519e+01 7.7651324462861069e+01  1.0933159462073324e+02 -4.6928526579820151e+01 8.1892600941079635e+01  1.0914904975019917e+02 -4.2900365243487371e+01 7.4047091435500576e+01  1.0928123548103547e+02 -4.3086854060629335e+01 7.8587783132250394e+01  1.1053930957659477e+02 -4.6364403194739090e+01 7.6695087039877308e+01  1.1002667601735776e+02 -4.5953363089613717e+01 7.2112486005449995e+01  1.0784524361489262e+02 -3.9835144171567187e+01 7.5748131146262679e+01  1.0902415074668794e+02 -3.8321422348135549e+01 7.0395894101041449e+01  1.0820122369693205e+02 -3.5911023707828505e+01 7.2548280588756043e+01  1.0741793749248572e+02 -3.5171111966553816e+01 7.2011031266284590e+01  1.0646630997345801e+02 -3.8969392200622224e+01 7.1231503345846107e+01  1.0641445210440443e+02 -3.8050723580692285e+01 7.4401041212161033e+01  1.0720205416867601e+02 -3.7220214586049060e+01 6.9704163547636583e+01  1.0649497763327662e+02 -3.8689088811896639e+01 6.7474482873105785e+01  1.0939110806738303e+02 -3.9398544929497085e+01 7.0360376942987031e+01  1.0968550594100429e+02 -4.1170009043141540e+01 6.8216452116722522e+01  1.0764223874903450e+02 -4.1023544551303985e+01 7.2447438737097272e+01  1.0864440944731271e+02 -4.4133921374666251e+01 7.0766689858848693e+01  1.0832384148328484e+02 -3.9834449617649497e+01 6.8032278969539220e+01  1.0813856755834658e+02 -4.4178933219322502e+01 6.3777075401995766e+01  1.0734357873491240e+02 -4.1861769339511646e+01 6.9400000645394613e+01  1.0832830932169527e+02 -4.4719434532654816e+01 6.7533312265495297e+01  1.0913252890103000e+02 -4.3040738380889437e+01 6.6099104762423039e+01  1.0744593385787979e+02 -4.1600435824673504e+01 6.5880144073764484e+01  1.0413975166604511e+02 -3.3317689617038610e+01 7.0651805388862471e+01  1.0511602353230555e+02 -3.6145220821004379e+01 7.2733098271968188e+01  1.0542791720219093e+02 -3.6120480411231355e+01 6.9347628648970186e+01  1.0593394515482397e+02 -3.4271810708053067e+01 7.1544808139436299e+01  1.2444456487366450e+02 -4.5315452393956875e+01 7.9481655296747519e+01  1.1400324687099554e+02 -4.3892456818682234e+01 7.9045722478077082e+01  1.1536598073854613e+02 -4.7186131765744697e+01 7.7121438376562864e+01  1.1751778811832212e+02 -4.8276352360000914e+01 8.2935385790723416e+01  -1.9252371649210988e-02 -8.0211450950901167e+01 1.8341620188079798e+02  -1.2683145861856229e-01 -9.0164027226694344e+01 1.7902651240161833e+02  3.1685562548616582e+00 -8.7763213481449966e+01 1.8009263379169730e+02  3.1829971795042056e+00 -8.9200439425693602e+01 1.6468271169433999e+02  3.7467169352768992e+00 -9.6812759092343072e+01 1.5981073342449488e+02  6.7895744740924853e+00 -9.5717008131760991e+01 1.6138190871258661e+02  5.7774616298389159e+00 -9.4323004434046268e+01 1.7616151372672718e+02  3.1196119373121882e+00 -9.6753424738559559e+01 1.7544940392105013e+02  -1.3588005732434971e-01 -9.8610897556229091e+01 1.7420764419837110e+02  8.1996886649814346e-02 -8.3013421432528233e+01 1.6829159974106076e+02  4.4820163055481306e+00 -8.8580414454087403e+01 1.4982013835216111e+02  -1.2498445362295452e-01 -8.3241849065293735e+01 1.5346467854370911e+02  1.5349811980302297e-01 -9.0902004536865164e+01 1.6375966092563965e+02  3.1777745244722073e+00 -1.0502918404931840e+02 1.7038558400487597e+02  4.0817547079328502e+00 -1.0430254856280908e+02 1.5366674615716363e+02  6.3616575230644443e+00 -1.0324920725226741e+02 1.7158954432535074e+02  7.7997472171757423e+00 -1.0317103701072520e+02 1.5561107386637647e+02  8.3849314213754009e-02 -1.0580541138777055e+02 1.5219077054865357e+02  -2.3308934601713474e-01 -9.8459430433569338e+01 1.5838435452145595e+02  5.1059016650619888e+00 -9.4884414496975182e+01 1.4403454049618276e+02  -1.4989446372466128e-01 -8.9912984979202363e+01 1.4827464282048396e+02  -2.6993916983522430e-02 -9.5913954875302665e+01 1.4231778221378011e+02  -4.1209810710084470e-02 -1.0682833838041456e+02 1.6928896261983132e+02  2.6280439006388306e-01 -8.5964245815514886e+01 1.3258729405194609e+02  1.5171129776534834e-01 -8.1332994776216395e+01 1.3855582260761625e+02  8.5615779234316154e+00 -1.0172850103154067e+02 1.7277059767942248e+02  1.6723978791929518e+01 1.6760958345315207e+00 4.8280364239141669e+01  2.4320601073310495e+01 -1.1601338527873351e+01 6.8712600984986111e+01  1.3281131981583856e+00 -2.2319959878997857e+01 7.6634002303491343e+01  4.2876555441675471e+01 -2.9990045026798462e+01 8.3119129633682448e+01  5.6392944285374718e+01 -5.1729618016375319e+01 1.0760400373284834e+02  4.5816097693625544e+01 -3.7671263163427447e+01 9.8028874574120039e+01  3.1146735813838330e+01 -4.0062191786490068e+01 9.9109650447251923e+01  1.1242440125146813e+00 -3.5027994389040565e+01 9.6894374805045786e+01  1.5146442413383927e+01 -2.7630149010432039e+01 9.0725484328380574e+01  3.3343642165705212e+01 -2.3383634240274450e+01 8.8128282460294699e+01  5.0732390806470683e+01 1.0571259866855520e+00 5.2621312629014682e+01  5.7932118562794699e+01 -3.1268944008444908e+01 8.5604618099428308e+01  6.8205236786414233e+01 -7.7997912571790380e+00 6.1939883778745482e+01  4.9884985472588966e+01 -1.3008779471142461e+01 7.2781857253606887e+01  8.7980366418875633e+01 -1.5554361943752852e+01 7.1333449965351733e+01  6.3631388780058977e+01 -1.5872473330302281e+01 7.5997606060833135e+01  5.9086427906643038e+01 -3.6694154316666520e+01 9.7916887173289894e+01  7.0724678699109504e+01 -3.1610088974755300e+01 8.6564059495742725e+01  3.4474232170598562e+01 -4.4335448803967864e+01 1.1167027770147720e+02  4.5127286609148612e+01 -5.7720371214806157e+01 1.2036474204487746e+02  3.6926167816857877e+01 -6.0374040422909147e+01 1.3180249260499110e+02  8.1326088863678848e+01 -3.1827222872505363e+01 8.7654676086320677e+01  5.9161804252813859e+01 -5.6999555291116700e+01 1.2038173897743265e+02  6.9441394870234134e+01 -5.0444223730757855e+01 1.0699819649290177e+02  8.1564145957102085e+01 -4.9789325820376980e+01 1.0616261175097978e+02  7.9820626919850852e+01 -1.2494560927440961e+01 6.8490663875949664e+01  4.7889931207178741e+01 -8.1084084608714889e+01 1.4818190112713361e+02  9.6013533870487819e+01 -7.0359653635125952e+01 1.2830712005757653e+02  6.9474837387575619e+01 -7.2916126344793369e+01 1.3161793378915507e+02  1.4453761144652248e+00 -4.8275668198074129e+01 1.2637146229220288e+02  1.0060520646726154e+01 -3.7709670950852541e+01 1.0759018845275747e+02  1.6196161701915312e+01 -5.2014703051961341e+01 1.2686236146722244e+02  2.3258953334961497e+01 -4.6337158607607719e+01 1.1343884144911381e+02  5.7307002663290285e-01 -4.5069261871161615e+01 1.1368091994738056e+02  9.7423894206982069e+01 -3.6917919860324105e+01 6.0777846393728076e+01  9.6511044720175576e+01 -3.7520645430029759e+01 5.8986630980119735e+01  9.7804653051889545e+01 -3.6790679702845509e+01 6.1029077040966129e+01  9.5804545601485032e+01 -3.5492471512083100e+01 6.0297263950896841e+01  9.4252914331791899e+01 -3.6279657673910670e+01 5.8091020044850353e+01  9.4592637639165190e+01 -3.6227563400297718e+01 5.8345266444401766e+01  1.0661954359920978e+02 -4.2632645732526612e+01 6.6441623785301701e+01  1.0621867920022477e+02 -4.0823877759139386e+01 6.8673621720182879e+01  1.0726918185677421e+02 -4.0342484431224740e+01 7.2007703289046546e+01  1.0831454998932549e+02 -4.3179517398936717e+01 7.0305619075340161e+01  1.0579470212155957e+02 -4.0076583469857546e+01 6.8403200804303097e+01  1.0359345900166981e+02 -3.4667455599937284e+01 7.1469878670434042e+01  1.0464770530368320e+02 -3.7201756877763977e+01 6.9813985106440171e+01  1.0519328087265768e+02 -3.8114866565103064e+01 7.0229461922653229e+01  1.0403964038148055e+02 -3.5497894417239486e+01 7.1742054626471088e+01  1.0605985205224991e+02 -3.7455797170335920e+01 7.3587231129518642e+01  1.1733534626779549e+02 -4.1712505421696690e+01 7.6200708440744563e+01  1.1179143709189994e+02 -4.3393563892176232e+01 7.4063968838584884e+01  1.0891906790067513e+02 -4.0635870708964234e+01 7.1830084217216893e+01  1.1305488101357489e+02 -3.9103304123011327e+01 7.3881193455925384e+01  1.1079009489623354e+02 -4.0274035633158043e+01 7.5694266175507380e+01  1.0785268587211124e+02 -3.7806061088216573e+01 7.3406013938340791e+01  1.0880889641394805e+02 -3.7012075429698179e+01 7.1904446736886854e+01  1.0599974839877653e+02 -3.8317456852130121e+01 6.9991447700867212e+01  1.0496097111930628e+02 -3.5624405024522297e+01 7.1333883303431577e+01  1.1176495132413089e+02 -4.9576873164632303e+01 6.1955216206162781e+01  1.090