<?xml version="1.0"?>
<VTKFile type="UnstructuredGrid"  version="0.1"  >
<UnstructuredGrid>
<Piece  NumberOfPoints="6710" NumberOfCells="27734">
<Points>
<DataArray  type="Float64"  NumberOfComponents="3"  format="ascii">-20.885067 14.578521 39.536413  -22.9566425 13.554193 38.4891645  -21.9217415 14.5886105 38.4896485  -23.2073285 15.797563 39.995109  -21.919968 13.5441035 39.535929  -22.954869 12.509686 39.535445  -22.958416 14.5987 37.442884  -23.399588 19.1457 40.454712  -23.179002 16.8722 38.948798  -22.1423275 16.8621105 39.99556250000001  -2.127803 27.66673 53.205467  -2.1276475 26.333433 50.5389195  -2.1278255 25.2692255 51.602949  -1.0639015 26.333365 51.6027335  -3.191549 27.666798 52.141653  -4.255473 26.6026585 52.1418685  -3.191727 26.6025905 53.20568249999999  -4.255651 25.538451 53.205898  -4.255295 27.666866 51.077839  0 25 50  8.50179 31.925647 42.572563  8.4361035 29.4859535 41.077943  7.3717985 30.550921 41.0772805  7.3718825 29.5089125 42.119205  9.566095000000001 30.8606795 42.5732255  10.6304 29.795712 42.573888  8.436187499999999 28.443945 42.1198675  6.241975 27.092178 41.665847  6.241891 28.1341865 40.6239225  6.241807 29.176195 39.581998  4.250324 34.053126 44.69655  3.1627 32.652104 43.185196  3.1606365 31.6130325 44.2263305  2.125162 32.6482475 44.2265905  0 31.243369 43.756631  2.0730125 30.2120105 42.7149765  1.037538 31.2472255 42.7152365  1.0354745 30.208154 43.756371  2.070949 29.172939 43.756111  2.075076 31.251082 41.673842  10.640845 19.152642 53.206513  8.441632500000001 18.955111 51.6032565  10.640526 20.216303 52.143171  9.576586500000001 20.2169265 53.206487  8.512328 21.281211 53.206461  8.4413135 20.018772 50.53991449999999  7.377374 20.0193955 51.6032305  9.5762675 21.2805875 52.143145  10.640207 21.279964 51.079829  6.24242 18.75758 50  -10.636204 25.538379 46.825417  -10.5723205 24.215147 44.2125325  -9.509074 25.279952 44.210974  -9.5091365 24.21488 45.2759835  -11.699388 25.538646 45.761966  -10.6361415 26.603451 45.7604075  -10.636079 27.668523 44.695398  -11.6993255 26.603718 44.6969565  -12.762572 25.538913 44.698515  -8.382069 22.891381 43.72655  -8.509473 27.66758 46.822947  -8.4640915 26.3239445 44.21196399999999  -8.464154000000001 25.2588725 45.2769735  -7.4007885 26.323473 45.2757385  -9.572776000000001 27.6680515 45.7591725  -9.5728385 26.6029795 46.824182  -6.292104 24.979366 43.72853  -7.3370865 23.9353735 43.72754  -9.515906000000001 26.3197055 43.1643885  -7.3439185 24.975127 42.6809545  -8.388901000000001 23.9311345 42.6799645  -8.395733 24.970888 41.633379  -17.016594 21.278389 44.705017  -14.7932345 21.0393025 43.167463  -17.0161385 22.3435575 43.640304  -15.952834 22.343441 44.703725  -14.889074 23.408493 44.702433  -14.792779 22.104471 42.10275  -13.7294745 22.1043545 43.166171  -15.9523785 23.4086095 43.639012  -17.015683 23.408726 42.575591  -12.569875 20.800216 41.629909  2.078994 22.921006 50  -0.036541 22.817134 51.4127455  0.9661944999999998 21.7488515 51.30748850000001  1.0450865 23.529655 51.4127455  0.9973664999999999 22.208485 50  -0.084261 21.495964 50  -0.115433 21.0363305 51.30748850000001  0.011179 24.138304 52.825491  -0.06771300000000001 22.3575005 52.720234  -0.146605 20.576697 52.614977  8.440251 21.0564105 49.5033385  10.6395515 22.3438825 50.016566  9.575856999999999 22.3444355 51.0797075  8.511507 23.408907 51.079586  8.439595499999999 22.120329 48.4400755  7.375901 22.120882 49.503217  9.5752015 23.408354 50.0164445  10.638896 23.407801 48.953303  6.240295 20.832857 47.926848  -14.891536 19.150432 48.958033  -12.6700895 18.939043 47.390868  -14.89079 20.214643 47.8945675  -13.8276615 20.215001 48.9573375  -12.763787 21.27957 48.956642  -12.6693435 20.003254 46.32740250000001  -11.606215 20.003612 47.39017250000001  -13.8269155 21.279212 47.893872  -14.890044 21.278854 46.831102  -10.448643 18.727654 45.823703  8.50465 29.795706 44.699644  8.437895000000001 27.3789075 43.183197  7.3733125 28.443942 43.1827455  7.373327 27.401456 44.225217  9.5692325 28.7306715 44.7000955  10.633815 27.665637 44.700547  8.4379095 26.3364215 44.2256685  6.242004 25.007206 43.75079  6.2419895 26.049692 42.7083185  6.37461 34.054622 42.570768  5.266206 31.613699 42.1200945  7.4382 32.9901345 42.5716655  6.375849 32.989659 43.634492  6.377088 31.924696 44.698216  6.329796 30.5492115 42.120992  5.267445 30.548736 43.1838185  7.439439 31.9251715 43.6353895  4.157802 29.172776 41.669421  4.251728 31.924055 46.824217  3.1637725 29.507208 46.329019  5.315474 30.8597005 46.8248255  4.252537999999999 30.859534 47.8879285  4.253348 29.795013 48.95164  4.2275185 28.4428535 46.3296275  3.1645825 28.442687 47.3927305  5.316284 29.7951795 47.888537  6.37922 29.795346 46.825434  2.075817 27.090361 45.833821  -21.274977 14.890652 46.834371  -20.031467 13.68788 45.280653  -20.024425 12.6473115 46.328264  -18.9844935 13.68721 46.32829649999999  -16.69401 12.483768 45.822222  -17.7409835 12.484438 44.7745785  -17.7339415 11.4438695 45.82218949999999  -18.773873 10.403971 45.822157  -18.780915 11.4445395 44.774546  -18.787957 12.485108 43.726935  -17.01954 17.020973 48.959488  -15.8148575 16.856212 46.3289305  -16.879183 15.7917255 46.3290915  -15.8158455 15.7923485 47.3918065  -18.0818895 18.0842135 46.833897  -17.018552 18.0848365 47.896612  -18.0828775 17.02035 47.896773  -19.146215 17.019727 46.834058  -17.017564 19.1487 46.833736  -14.612151 14.563724 45.824125  -10.5791525 25.2549005 43.165947  -10.5790775 26.3203915 42.1005315  -12.762497 26.604404 43.6330995  -11.6992505 27.669209 43.631541  -12.762422 27.669895 42.567684  6.383925 23.409745 53.20633  5.276007 23.1843005 50.539692  4.2314595 23.1653755 51.603165  5.2765565 22.1202785 51.603165  6.3833755 24.473767 52.142857  6.382826 25.537789 51.079384  4.23091 24.2293975 50.539692  4.169188 20.830812 50  3.124091 21.875909 50  -6.382437 29.796136 46.821427  -6.3534545 27.368507 45.2780385  -5.2861995 27.391774 46.3220265  -5.2899365 28.432785 45.2772785  -7.445955 28.731858 46.822187  -6.349717500000001 26.327496 46.3227865  -4.197436 27.069434 43.73313  -4.193699000000001 26.028423 44.777878  -4.189962 24.987412 45.822626  5.272797499999999 24.2262585 49.5009435  4.1659785 21.87277 48.9612515  3.1208815 22.917867 48.9612515  4.162769 22.914728 47.922503  -10.636006 29.799029 42.564965  -8.469895000000001 27.3638335 43.166272  -9.515869500000001 27.3849585 42.099172  -8.469858500000001 28.4290865 42.1010555  -10.6360425 28.733776 43.6301815  -6.303711 27.059144 41.637146  -7.349722 26.015016 41.6352625  6.3403475 22.1198595 50.539793  7.4471665 24.473348 51.079485  7.447716 23.409326 52.142958  6.337137999999999 23.1618175 49.5010445  2.126923 29.794872 51.078206  1.0634615 27.397436 50.539103  -0.0004399999999999959 28.730801 52.1418365  2.1272245 28.7307225 52.1420535  2.127526 27.666573 53.205901  1.063763 26.3332865 51.6029505  -0.0001385000000000414 27.6666515 53.205684  8.510709500000001 24.4730345 50.016256  6.3363405 24.225945 48.4377145  7.446369 25.5374755 50.016155  8.509912 25.537162 48.952926  -1.0638675 27.3975155 50.538617  -0.0004059999999999064 29.7949515 51.07772  -2.127735 29.795031 51.077234  -2.127769 28.7308805 52.1413505  0 29.794872 53.205128  -1.0639015 28.730801 53.2052975  -1.0638675 29.7949515 52.141181  1.0634615 29.794872 52.141667  1.063763 28.7307225 53.2055145  -19.142975 21.277315 42.579711  -17.94361 19.998597 41.0577935  -17.9347625 18.9596875 42.10555050000001  -16.8954755 19.9989135 42.1056115  -14.647976 18.720512 41.631512  -15.6961105 18.7201955 40.583694  -15.687263 17.681286 41.631451  -16.72655 16.64206 41.63139  -16.7353975 17.6809695 40.58363300000001  -16.744245 18.719879 39.535876  7.3751035 23.1850095 48.439887  8.4408095 23.1639695 47.395221  9.574404000000001 24.4724815 48.9531145  7.3763175 24.22865 47.3950325  6.241509 21.8764975 46.8819935  6.242723 22.920138 45.837139  8.4397895 24.228191 46.3320195  7.375199 25.2930855 46.3317155  9.573384000000001 25.536703 47.889913  9.5722655 26.6011385 46.826596  8.508793499999999 26.6015975 47.889609  8.507675000000001 27.666033 46.826292  10.636856 25.536244 46.8269  9.479286 25.296128 44.2245855  9.4808065 24.2314315 45.287762  8.43943 25.271725 45.288845  10.6353355 26.6009405 45.7637235  7.2833805 23.9669125 43.749707  8.324757 22.926619 43.748624  7.3748395 26.3366195 45.288541  6.2423635 23.963672 44.7939645  -2.127664 31.923472 48.948864  -2.127618 29.4832495 47.3891325  -2.1276135 30.5476165 46.32477  -1.063832 30.5472795 47.3888885  -4.2552315 30.859779 47.8849895  -3.19145 30.859442 48.949108  -3.1914455 31.923809 47.8847455  -4.255227 31.924146 46.820627  -4.255236 29.795412 48.949352  0 29.171087 45.828913  -19.150229 12.765433 51.084338  -18.9772865 11.585825 48.436888  -18.95773 10.542519 49.499751  -17.9138635 11.586576 49.4995605  -20.213652 12.764682 50.0216655  -21.277075 12.763931 48.958993  -20.021153 10.541768 48.4370785  -16.677498 10.407719 47.914783  -17.7213645 9.363662 47.9149735  -18.765231 8.319604999999999 47.915164  6.340758 21.0560115 51.6032305  8.511917499999999 22.345059 52.1430235  7.4481265 22.345478 53.2063955  -6.382602 27.667016 48.950383  -6.349807 25.262906 47.387287  -5.286282 26.327214 47.3865045  -7.4460375 27.667298 47.886665  -8.509562500000001 26.60299 47.8874475  -7.446127000000001 26.602708 48.9511655  -8.509652000000001 25.5384 48.951948  2.126219 31.923342 48.950439  -1.063832 29.5034745 48.4326935  1.0631095 29.5034095 48.433481  -0.0007580000000000364 30.8591865 50.0138365  -0.0007225000000001813 31.923407 48.9496515  -2.1276995 30.8592515 50.013049  -1.0638675 28.439254 49.49687849999999  0 27.083477 47.916523  0 31.923077 51.076923  -1.0638675 30.859054 51.0770785  -1.063832 31.9232745 50.0128935  1.0631095 31.9232095 50.01368100000001  1.0634615 30.8589745 51.0775645  2.126571 30.859107 50.01432250000001  1.0634615 28.4391745 49.4973645  5.201532 21.8737925 47.9246755  -4.239879500000001 29.478382 45.2817385  -4.239297000000001 28.4371125 46.3235905  -2.0
[...]
<PointData  Vectors="u"> 
<DataArray  type="Float64"  Name="u"  NumberOfComponents="3" format="ascii">5.5093963083465766e+01 1.6703615677523544e+01 3.8391831613334077e+01  5.6631705031662243e+01 1.6569677347404028e+01 4.0062844461829684e+01  5.6155648096517240e+01 1.7191363577606054e+01 3.8962527304454660e+01  5.6038201626228883e+01 1.7041983421767029e+01 3.8995731972283735e+01  5.5547410812986243e+01 1.6111483220822919e+01 3.9431293416875945e+01  5.5958193521843093e+01 1.5449285701537045e+01 4.0511216578294345e+01  5.7279249162090586e+01 1.7712751944139427e+01 3.9567566078393916e+01  5.5931094083029727e+01 1.8551859502419049e+01 3.7381008037463090e+01  5.6607231930743616e+01 1.8153601100756564e+01 3.8451325554562523e+01  5.5530517776886782e+01 1.7620481571140363e+01 3.7906542708748489e+01  2.5192319770560690e+01 1.1875888283661880e+01 1.2997283114509493e+01  4.3232155362600047e+01 1.0154338336165376e+01 1.5811616067805744e+01  4.1133103247234132e+01 8.3478134940843347e+00 1.3498891304823506e+01  3.9687312018601403e+01 4.8625669351740877e+00 7.4779749218283680e+00  3.1873233629889143e+01 1.4127741229918138e+01 1.7499492442156594e+01  3.6378758375510699e+01 1.5237619950493565e+01 2.0280223611852680e+01  3.1045881734329818e+01 1.4739132024814777e+01 1.5641014341580330e+01  3.4319721241008359e+01 1.5479535336570981e+01 1.7860315287575212e+01  3.6966289774882355e+01 1.5773064199457593e+01 2.0858599147834941e+01  6.5266059103154944e+01 6.1002395961740363e-01 9.7949559389910945e-01  4.7714795188871314e+01 -2.1799679895928175e+01 -2.6047721574647465e+01  4.8467083039474922e+01 -2.1506961191206564e+01 -2.6820048907739867e+01  4.8180726602680565e+01 -2.1807972120735261e+01 -2.6092712684274190e+01  4.7780593896936097e+01 -2.1106070236774556e+01 -2.6364067426964880e+01  4.8258553744987111e+01 -2.1484881246079151e+01 -2.6759389582733675e+01  4.8634180707995199e+01 -2.1151381637086299e+01 -2.7510044773822255e+01  4.8108054304846590e+01 -2.0782188408541625e+01 -2.7185284151872125e+01  4.7548097057208906e+01 -2.0611142818114573e+01 -2.6988959491244806e+01  4.7948616435554200e+01 -2.1305385808377483e+01 -2.6613647908451988e+01  4.8316890199573827e+01 -2.2016977805529976e+01 -2.6346047586961284e+01  4.1763782964351599e+01 -1.9718143652842588e+01 -2.1478899471262668e+01  5.0766635660737165e+01 -1.8925937653683341e+01 -2.0319124395808466e+01  4.6793546016329678e+01 -1.8585726524921103e+01 -2.1284711025006644e+01  4.9118950300989617e+01 -1.6204236053886476e+01 -1.6933986524825823e+01  8.2762316764700742e+01 5.9826833639073540e-01 4.9554707836441408e-01  4.7794490795053314e+01 -2.5007992394651460e+01 -2.7306751832962963e+01  6.4016170393238667e+01 -3.1157214476849418e+01 -3.5007646406752990e+01  6.2164664166780199e+01 -3.4311299682208791e+01 -3.3936701436419241e+01  4.9470601036879472e+01 -2.2603565513041058e+01 -2.5315039115826270e+01  5.0637161737526270e+01 -2.3686775134217825e+01 -2.5377032014420198e+01  4.1376500895356770e+01 -1.7076446019546410e+01 -2.3553142537928384e+01  4.7710547407603904e+01 -1.0298974961965556e+01 -2.1577089903817193e+01  4.3336062808123337e+01 -1.5256072539323903e+01 -2.7208929803975014e+01  4.0577134206391186e+01 -1.7287629385921399e+01 -2.4036786380227841e+01  4.0041753432496371e+01 -1.7023593645265407e+01 -2.2350239147232550e+01  4.7387819138577122e+01 -1.1083160083573254e+01 -2.7398743718152613e+01  4.7763927787168278e+01 -9.3954699878624908e+00 -2.1401635886769416e+01  4.3065736394357607e+01 -1.5807675609196847e+01 -2.6365706403750128e+01  4.4609574795916380e+01 -1.5324611766369834e+01 -2.9131555460631574e+01  6.1619273003616783e+01 4.7238868966059195e+00 -2.4540362216211548e+01  4.6996635784559061e+01 1.7808972662056920e+01 2.9256957879587116e+01  4.8216666995456954e+01 1.8346503238485422e+01 2.9784964474037910e+01  4.7715734917814792e+01 1.8729288734101477e+01 2.8877767032634608e+01  4.7337002338932976e+01 1.7796977261233469e+01 2.9366131045981991e+01  4.7994537175129757e+01 1.8273131370169654e+01 2.9710056661305700e+01  4.7487707109182566e+01 1.8661749762261742e+01 2.8811921641199820e+01  4.7869224269585736e+01 1.9550763332489559e+01 2.8353629427686293e+01  4.8376734477517701e+01 1.9154014883143898e+01 2.9221555577805766e+01  4.8873869139595470e+01 1.8793628106354170e+01 3.0097052412731362e+01  4.7505019708387145e+01 1.7948878114563758e+01 2.9582736852561634e+01  4.5865957226010778e+01 1.8679115163580050e+01 2.7324079533271206e+01  4.7296180351954611e+01 1.9133501775676521e+01 2.7988180331828563e+01  4.6857283348115118e+01 1.8199389421441253e+01 2.8404530032601400e+01  4.6439380170703316e+01 1.8640721483619725e+01 2.7439604993479090e+01  4.7001170052739660e+01 1.9082556837873703e+01 2.7893057754819338e+01  4.6501115907649201e+01 1.8196823874689152e+01 2.8300110586024402e+01  4.6643808111753756e+01 1.8885836051122819e+01 2.7804430037230585e+01  4.7014744417214573e+01 1.8346582439236961e+01 2.8636947701576112e+01  4.8108475275343544e+01 1.9606241736115731e+01 2.8437816179128415e+01  4.7434658477540431e+01 1.9269083082629081e+01 2.8147150969023834e+01  4.7884685439752666e+01 1.8853224556476583e+01 2.9016977309076768e+01  4.8275296135728979e+01 1.9715805605619021e+01 2.8572313286127805e+01  5.0968390648327578e+01 1.7354943369037720e+01 3.3627569556644580e+01  5.0630933187786781e+01 1.7812278974086610e+01 3.2787630404961000e+01  5.1355890572828336e+01 1.8237959951859892e+01 3.3116436637005428e+01  5.0458341257551545e+01 1.7723819222824783e+01 3.2736897246887210e+01  4.9926851881960651e+01 1.8084342212481737e+01 3.1856366722581988e+01  5.0985609485774603e+01 1.8707848986480244e+01 3.2264717657485100e+01  5.0104960994879136e+01 1.8171566365471072e+01 3.1907272312422631e+01  5.0826021266088112e+01 1.8603867898319912e+01 3.2219500276675959e+01  5.1720115095434664e+01 1.9144882923800282e+01 3.2578083323357028e+01  5.0255070769982758e+01 1.8286571151567223e+01 3.1973604181198180e+01  5.7323685556373434e+01 2.6692058168322914e+00 -2.1068910418261208e+01  5.1441132662972095e+01 -5.4382720761095828e-02 2.0338158746593907e-01  5.1758809958084385e+01 -1.4577361485875906e-01 -2.0984385691889083e+00  5.0426096605353884e+01 -7.4630130475103140e-01 -6.4717726730879805e+00  5.7015881506145298e+01 3.2524822475941959e+00 9.4829658156379137e-01  5.2304937411466625e+01 -8.3953390338530554e-02 -6.9725380963922123e-03  5.1128349159306076e+01 8.7749056497594315e-03 2.2940649321091258e-01  4.2722515240364814e+01 9.8401102324707015e-03 -2.7395661343000255e-02  4.6656587354234503e+01 1.3753909607507808e-01 1.8295256224409409e-01  4.9496328603171193e+01 1.5809949608191085e-01 2.1709726913234456e-01  4.6222719621916873e+01 -1.3670253661727251e+01 -2.8787069950197004e+01  4.5513851417970749e+01 -1.5267574795867727e+01 -3.0108090537967065e+01  4.4250853784922995e+01 -1.5137998772312997e+01 -2.8546547012815843e+01  4.3155744031128648e+01 -1.5598525394798370e+01 -2.7309643324037680e+01  4.6203865388212513e+01 -1.4631000955129865e+01 -2.9616727307488155e+01  4.6420308785606785e+01 -1.2688839205591218e+01 -2.8239383920586747e+01  4.5063177690660339e+01 -1.5646894345492939e+01 -2.9101257976443740e+01  4.6009890779423500e+01 -1.6184167559444354e+01 -3.0003299030215974e+01  4.6459948330674877e+01 -1.3090423468005767e+01 -3.1304900381703696e+01  4.8237735429934745e+01 1.5029785005492577e+01 3.3389109849723155e+01  4.8490471178338183e+01 1.4852527456461608e+01 3.2718782538902019e+01  4.8811897563474616e+01 1.5530314675670454e+01 3.3253608587368845e+01  4.7855001849391329e+01 1.5182025651002645e+01 3.2680632486205305e+01  4.7180807752775827e+01 1.5627451919184621e+01 3.1781708535619241e+01  4.8681808919266139e+01 1.5793288819184619e+01 3.2487680252553957e+01  4.8010633953198599e+01 1.5091138907379390e+01 3.2017726201041405e+01  4.8353546102205456e+01 1.5877271499213464e+01 3.2397897373533276e+01  4.9166900953306296e+01 1.6404164287919151e+01 3.2831409704598428e+01  4.8058094655503204e+01 1.5324318034909101e+01 3.2765413147861103e+01  4.6897594656098775e+01 -2.0373536551928360e+01 -2.6654302608695527e+01  4.7701182616942866e+01 -1.9985697215562883e+01 -2.7564411615436200e+01  4.7378165875303168e+01 -2.0385842887338612e+01 -2.6710759540373868e+01  4.6891387219434357e+01 -1.9532747706820931e+01 -2.7018603633442932e+01  4.7466927948450241e+01 -1.9950626756239849e+01 -2.7495182607074771e+01  4.7866618626649206e+01 -1.9547458122069930e+01 -2.8354737446492855e+01  4.7281375762601257e+01 -1.9129730027394093e+01 -2.7970324742435938e+01  4.6604546575349822e+01 -1.8892835638614265e+01 -2.7776792580073721e+01  4.7044304058331875e+01 -1.9722398966269036e+01 -2.7262516232918369e+01  4.6295532189035740e+01 -2.2134037646574946e+01 -2.4532258233296275e+01  4.7628066359710481e+01 -2.1390980784342354e+01 -2.4572939822403086e+01  4.7438942302432210e+01 -2.2062120763889006e+01 -2.5283679660777938e+01  4.6269115638120432e+01 -2.1715122701126038e+01 -2.4765312336154885e+01  4.5481548314136845e+01 -2.1010282977294970e+01 -2.4847726755618108e+01  4.7710537804230107e+01 -2.1393699008394542e+01 -2.5574097596876527e+01  4.7332255732503420e+01 -2.0897691705449628e+01 -2.4840243889832301e+01  4.7068390574109159e+01 -2.1375230498332986e+01 -2.5559622534017588e+01  4.7614740095984708e+01 -2.1870030586173819e+01 -2.5897255050942722e+01  4.0695111945944006e+01 -1.8722840136147568e+01 -2.1478449548044235e+01  4.5393582085925097e+01 -1.7339448805825551e+01 -2.1260195538829020e+01  4.3648364518988217e+01 -1.9871380410772506e+01 -2.3653406193018064e+01  4.1005220388405185e+01 -1.8210244049862915e+01 -2.1438807158134903e+01  3.9086988703691652e+01 -1.7309050017528364e+01 -2.1379789263344112e+01  4.6175334097093739e+01 -1.8668483691110552e+01 -2.3772085306263932e+01  4.7664366449170217e+01 -1.6451178637577744e+01 -2.0387961149187905e+01  4.2914554772873380e+01 -1.8639393470686556e+01 -2.3866638182814413e+01  4.4295244964008560e+01 -1.9546215035343323e+01 -2.5171330710716003e+01  4.7559752797368773e+01 -2.0904488446029855e+01 -2.5310646469344597e+01  5.1675274756009514e+01 1.3840610281962874e+01 3.7904227923913247e+01  5.1955557352439001e+01 1.3833365951219246e+01 3.7954495479871916e+01  5.1494591729524615e+01 1.2916397074753842e+01 3.8149870014321380e+01  5.1217294722937631e+01 1.3442813911831340e+01 3.7346471007103517e+01  5.0648629696051700e+01 1.3177529984673132e+01 3.7469404309673713e+01  5.1257259305019481e+01 1.3646663216096558e+01 3.7575484331217346e+01  5.0925453002330990e+01 1.2713724185362821e+01 3.8087936102962345e+01  5.1155364270472546e+01 1.2160052689557828e+01 3.8988106635844197e+01  5.1561937622810355e+01 1.3120498588054227e+01 3.8410309924790340e+01  5.2075855934700385e+01 1.3989715108243646e+01 3.8107216201854413e+01  4.9073916378523130e+01 1.4400286824298897e+01 3.4912963598627094e+01  5.0117735229807707e+01 1.4765668566528706e+01 3.4934862541100365e+01  5.0522008677844092e+01 1.4354746073695926e+01 3.5748544783491894e+01  4.9921055766727342e+01 1.3791256739733976e+01 3.5154026983552519e+01  5.0628421586268836e+01 1.5224285567597844e+01 3.5388698988239341e+01  4.9737733380663897e+01 1.4821003970288070e+01 3.4884309205788576e+01  5.0203096548493484e+01 1.4458241743826861e+01 3.5670169897364950e+01  5.0982192697139823e+01 1.4854756117429167e+01 3.6205502452857900e+01  5.0134424426552279e+01 1.5686765250564909e+01 3.4524050239622539e+01  4.9939774841005601e+01 1.4018984412256120e+01 3.5931253562267536e+01  4.8576242256869129e+01 1.9226041436479619e+01 2.9302307477562877e+01  4.8941815139196400e+01 2.0079314621618810e+01 2.8829316741400458e+01  4.9247940378890718e+01 1.9646208534892068e+01 2.9597940434347258e+01  4.8759734629470223e+01 2.0004260541741274e+01 2.8750087382560217e+01  4.9583480680249970e+01 2.0489551969672046e+01 2.9101498754393742e+01  3.7998070682368002e+01 -1.6670487166672011e+01 -2.0827639945954886e+01  4.4266609763776174e+01 -1.2500829623315527e+01 -2.5035129872598954e+01  4.3880034312761488e+01 -1.0163389532094730e+01 -1.8099475047513575e+01  4.5965088675918288e+01 -9.4037690950003618e+00 -1.9594156596337932e+01  3.9833140559206633e+01 -1.5356506143338036e+01 -2.3577242165844392e+01  4.0992866762942249e+01 -1.5986009064848018e+01 -2.4962958333296854e+01  4.4010202246345862e+01 -1.1667017328688322e+01 -2.2608915549106293e+01  5.9418504262531684e+01 3.8482132230267876e+00 -2.3935859957763974e+01  5.9851502564477855e+01 5.3203315722359523e+00 -2.4924525831510074e+01  4.4386338755745399e+01 1.9529218636125524e+01 2.5151693168535829e+01  4.6204916715142161e+01 1.9067979718324043e+01 2.6383926965776681e+01  4.5371627581741215e+01 1.8329363797568778e+01 2.5334692480229577e+01  4.6217225154270714e+01 1.9376826499718980e+01 2.5187223301086508e+01  4.5469804934711505e+01 1.9145035587864626e+01 2.6269452747304403e+01  4.5678655019352199e+01 1.8044046722071364e+01 2.6723516922400517e+01  4.6569198477192458e+01 2.0281693496349785e+01 2.6250221280774532e+01  4.5810318430433881e+01 1.9228562372523104e+01 2.6355650253107708e+01  4.5265417886942529e+01 1.8191468737594324e+01 2.7090315780582884e+01  4.4994689383623353e+01 -1.2984351288710396e+01 -2.5622472959968412e+01  4.5706286790084569e+01 -1.0561702487883956e+01 -3.6540584712168595e+01  4.6482791431130011e+01 -1.1859805112497627e+01 -3.5632798764103917e+01  4.4542906781463891e+01 -1.4608076729178102e+01 -2.9564369171165488e+01  4.8636271720964146e+01 2.1155886066044872e+01 2.7508164011361274e+01  4.7718019471897584e+01 1.9987392746971576e+01 2.7584041226466812e+01  4.8486885226149099e+01 2.0434047401780170e+01 2.7994983105807172e+01  4.8126068531956797e+01 2.0787415385281253e+01 2.7204868630072603e+01  4.8301181691330861e+01 2.0369958648497253e+01 2.7921758124141657e+01  4.7578322226834324e+01 2.0597360378808482e+01 2.7018108537174701e+01  4.7856918183472189e+01 2.0097627322163916e+01 2.7738626663776795e+01  4.5595743873914600e+01 -1.1422493623888444e+01 -2.5846046862059460e+01  4.2552804329567678e+01 -1.5479788631808939e+01 -2.6460081168065649e+01  4.1411228339286673e+01 -1.5778362155154166e+01 -2.4503151480513555e+01  4.4864482544129622e+01 -1.4068725783794896e+01 -2.6628537535563506e+01  2.7364546444509113e+01 -1.2025393983504907e+01 -1.3761142602674738e+01  4.0037881262370099e+01 -6.3701811020567565e+00 -8.4998180390726787e+00  2.3011268008042446e+01 -1.6344684866473827e-01 -1.6868001056801576e-01  2.6324592062880111e+01 -1.2417909029771097e+01 -1.4296599521669020e+01  2.5500403669127341e+01 -1.1752455097012655e+01 -1.2467131245039422e+01  3.9543702572824813e+01 -5.0096909370175666e+00 -7.3079375963177782e+00  2.2426504540987224e+01 -7.8343071333007608e-02 1.9364416064703571e-01  4.4073816045189126e+01 -1.5813729522651501e+01 -2.8175006700528861e+01  4.4990643899171324e+01 -1.5287675596775637e+01 -2.7372259044119517e+01  4.3401884927589364e+01 -1.6292189558421445e+01 -2.6962247832244632e+01  4.4625196816268065e+01 -1.6882806284853348e+01 -2.7991958379846295e+01  4.0282078180911256e+01 6.6143061462914101e+00 8.8644130804667398e+00  2.3995900645466076e+01 1.4264997351262246e-01 1.0852401657583961e-01  2.7187695980542593e+01 1.2223037139704793e+01 1.4107648981574361e+01  2.6583782866679922e+01 1.2701159510820206e+01 1.4253181317974361e+01  5.8280874059561514e+00 5.5260826946961251e-02 1.9337098457249829e-02  1.6572618130297045e+01 9.3903013273287321e+00 9.4704847090015107e+00  1.6881971563386365e+01 9.2752239301588588e+00 9.9880846222332664e+00  1.7004580374200476e+01 -9.4003969981140365e+00 -1.0118962279572408e+01  1.6560476087795085e+01 -9.2437417615614805e+00 -9.4950905384738089e+00  5.2809233421480187e+01 1.8380945736412080e+01 3.4431079959396747e+01  5.2956049786601845e+01 1.8494563768766749e+01 3.4457214921909163e+01  5.2540719027392441e+01 1.7567166485920442e+01 3.4960338364540434e+01  5.2034892941227483e+01 1.7967263990369428e+01 3.4055156832145968e+01  5.1278105755318073e+01 1.7569290644395423e+01 3.3713698234452480e+01  5.2174478121250502e+01 1.8086283401568487e+01 3.4085797181778609e+01  5.1774316190867665e+01 1.7182816246420490e+01 3.4590558735820267e+01  5.2248113417291350e+01 1.6764309031890651e+01 3.5488713697182753e+01  5.2678327401814947e+01 1.7678152881296452e+01 3.5000667018131971e+01  5.3095307011700605e+01 1.8612241588792124e+01 3.4483431246302182e+01  4.5631698620230964e+01 -1.5000478672130384e+01 -2.8585405231336146e+01  4.6185249755157002e+01 -1.6084991630118669e+01 -2.9188632682520684e+01  4.5493492063873326e+01 -1.6386654739251483e+01 -2.9118966413315484e+01  4.5648791013504301e+01 -1.6405886336234616e+01 -2.8232155628960246e+01  4.5447294985883289e+01 -1.5611032912244278e+01 -2.9890409023027182e+01  4.5762675894095274e+01 -1.6757162649104057e+01 -2.9079022136206088e+01  4.6486518767802721e+01 -1.7169324986145540e+01 -2.8855065696561365e+01  4.5970475529191113e+01 -1.7576926718284522e+01 -2.7798101665871521e+01  4.6062774975997449e+01 -1.7247779033447689e+01 -2.8747667293782357e+01  4.6529260493882866e+01 -1.8185481076335893e+01 -2.8324954933245781e+01  4.5399453236018402e+01 -1.7653649965423629e+01 -2.7704584306664152e+01  4.5851366037907113e+01 -1.8672233831084707e+01 -2.7322069566646174e+01  4.6992760094867776e+01 -1.7807813946348041e+01 -2.9263746450569617e+01  4.7698392353675366e+01 -1.8725655018240431e+01 -2.8858376527158953e+01  4.7318367073800253e+01 -1.7794871249828031e+01 -2.9348164943533639e+01  4.6844069892430859e+01 -1.8199653474668636e+01 -2.8385432655068062e+01  4.7471982664734085e+01 -1.8664851208159469e+01 -2.8803699576060069e+01  4.6987882123671326e+01 -1.8343865938504052e+01 -2.8614884695083887e+01  4.7468189760036815e+01 -1.7950429710657613e+01 -2.9547961211765042e+01  4.6419050190743341e+01 -1.8640782263296170e+01 -2.7424255067829581e+01  4.6109607712975986e+01 -1.7858397317369075e+01 -2.8174029066523456e+01  2.8745540217643835e+01 1.3123803659764219e+01 1.4536356691130390e+01  4.5967537354951290e+01 1.5908212962008065e+01 1.8926249035308761e+01  4.7593354591243305e+01 1.5220838721616328e+01 1.6606022663545989e+01  4.5794658187410683e+01 8.2499955065252006e+00 9.1223447835592673e+00  4.0931479426020495e+01 1.8282952228184637e+01 2.1540619611426568e+01  3.5358945792544048e+01 1.6009038365218867e+01 1.7734838983244348e+01  3.5986662148978368e+01 1.5818665960935167e+01 1.8572985819970981e+01  4.0701737531359882e+01 1.8655918982671672e+01 2.1407204278215588e+01  3.9158028790381834e+01 1.7280143574644260e+01 2.1320628715392314e+01  7.9615518877940019e+01 -2.7848398794542584e-01 -1.9948343384639508e-01  4.7979460742200203e+01 1.3157755826452622e+01 3.4366801929320744e+01  5.0773770000294839e+01 1.1287693669646020e+01 3.7350184239976620e+01  5.0471360708490515e+01 1.0307639892099026e+01 3.5558215800484263e+01  5.1630378199366120e+01 9.7820820278835345e+00 3.5491497378333271e+01  4.9525867853763259e+01 1.2609358841602642e+01 3.6797569506838968e+01  5.0269820198340341e+01 1.2533802386823464e+01 3.7905319130280638e+01  5.1046212303779349e+01 1.0831334111494598e+01 3.7979374893248888e+01  5.1430375004056366e+01 1.0143264648215624e+01 3.9080286204040156e+01  5.0931970005923780e+01 1.0181116231570835e+01 3.9311348309262144e+01  5.1702781594483014e+01 9.1647215499275809e+00 4.0454811078670936e+01  4.6034365450419742e+01 -1.0468206366938597e+01 -2.0440207963760098e+01  4.1883514841071921e+01 -1.5401955129248693e+01 -2.5693528236095108e+01  3.9039488220035238e+01 -1.7073305579909551e+01 -2.2648285084792310e+01  4.2858677141754498e+01 1.7710909633601716e+01 2.5463783734690224e+01  4.5142157332898421e+01 1.6891153277838772e+01 2.6994715228994977e+01  4.4896048555975987e+01 1.7279623830371929e+01 2.5660337587803891e+01  4.4848914269510111e+01 1.8129798487917569e+01 2.6613565250620542e+01  4.5462469564911430e+01 1.7664845029359856e+01 2.7751076242636469e+01  4.4026043659568472e+01 1.7294520247812862e+01 2.6756701402420209e+01  4.4653154752120372e+01 1.6879389571713041e+01 2.7951410077721558e+01  2.9026367353490340e+01 -1.3054283480678979e+01 -1.4307378899407338e+01  4.3065044312794228e+01 7.8943285392406510e+00 9.3082805683334744e+00  4.2929294034947041e+01 -7.6621357204992737e+00 -8