<?xml version="1.0"?>
<VTKFile type="UnstructuredGrid"  version="0.1"  >
<UnstructuredGrid>
<Piece  NumberOfPoints="6507" NumberOfCells="26613">
<Points>
<DataArray  type="Float64"  NumberOfComponents="3"  format="ascii">-31.920564 17.014714 34.064721  -30.5374275 15.842053 32.620519  -31.57104 14.805916 32.6230435  -30.5362415 14.80113 33.662628  -29.151919 12.587546 33.260535  -29.153105 13.628469 32.218426  -30.1867175 12.592332 32.2209505  -31.221516 12.597118 31.181366  -30.1879035 13.633255 31.1788415  -29.154291 14.669392 31.176317  -36.184797 17.014607 29.800596  -34.742247 16.912066 27.345687  -34.740411 15.8477705 28.4118185  -35.7817685 15.840805 27.3774265  -36.186633 18.0789025 28.7344645  -36.188469 19.143198 27.668333  -35.37874 14.667003 24.954257  -34.3373825 14.6739685 25.988649  -33.296025 14.680934 27.023041  -29.788859 12.760046 40.451096  -27.375527 12.6761435 38.9483295  -28.4403485 12.675973 37.8836785  -28.4403185 11.6123185 38.9473635  -28.7240975 14.8875255 39.38837700000001  -28.7240675 13.823871 40.452062  -29.788889 13.8237005 39.387411  -29.788919 14.887355 38.323726  -27.659276 14.887696 40.453028  -27.091778 10.464591 37.443631  -34.052527 17.013771 31.933702  -32.635526 15.850709 30.5137655  -33.675033 14.8044175 30.52055  -32.6370215 14.8054445 31.557534  -31.2200205 13.6423825 30.1375975  -32.2595275 12.596091 30.144382  -33.297539 12.595064 29.107398  -32.258032 13.6413555 29.1006135  -31.218525 14.687647 29.093829  -31.918349 12.759863 38.321788  -30.5387895 12.685981 35.77522949999999  -29.4737095 12.686511 36.8397795  -30.5384245 11.622765 36.83881049999999  -31.918714 13.823079 37.258207  -30.853999 14.886825 37.259176  -30.853634 13.823609 38.322757  -31.919079 14.886295 36.194626  -29.1585 10.485667 35.355833  -28.4398485 14.7864375 35.7737145  -29.5047145 13.722262 35.7730235  -28.4396345 13.722792 36.8375735  -29.789133 15.9510005 37.259867  -30.854213 15.9504705 36.195317  -29.789347 17.014646 36.196008  -27.09035 12.558229 35.351421  -29.470633 14.801096 34.7282715  -30.535499 13.7369205 34.7275805  -28.1211345 12.5728875 34.305978  -28.124425 11.521948 35.353627  -29.1552095 11.5366065 34.308184  -25.531858 12.761524 44.706619  -24.2389715 12.6539785 42.10705  -25.3038965 11.5903315 42.105772  -24.239731 11.5906185 43.169651  -25.5310985 13.824884 43.644018  -26.595264 13.824597 42.580139  -26.5960235 12.761237 43.64274  -27.660189 12.76095 42.578861  -25.530339 14.888244 42.581417  -22.947604 10.419713 41.632683  -31.918436 10.633526 40.448038  -31.6062215 9.507306 37.8864725  -30.5417555 9.507439 38.9508055  -31.5803125 8.4636555 38.95603199999999  -32.982902 10.633393 39.383705  -34.047368 10.63326 38.319372  -32.6447785 8.4635225 37.891699  -31.242189 6.293785 37.464026  -30.203632 7.3375685 37.4587995  -29.165075 8.381352 37.453573  -38.305473 8.507241 36.187286  -36.8497555 8.470231999999999 33.6800125  -37.89009249999999 7.4041255 33.705782  -36.848916 7.4069545 34.7441295  -38.3063125 9.5705185 35.123169  -38.307152 10.633796 34.059052  -37.890932 8.467403000000001 32.641665  -35.392359 6.306668 33.300973  -36.4335355 6.303839 32.2626255  -37.474712 6.30101 31.224278  -33.67636400000001 17.950782 27.3728535  -34.743078 17.95048 26.306442  -35.121755 19.1435 28.7347445  -34.055041 19.143802 29.801156  -33.675533 16.912368 28.4120985  -33.29685600000001 15.719348 25.983796  -33.297687 16.757762 24.944551  -25.2769995 14.7752445 38.947756  -26.3418425 13.71079 38.9473675  -25.3070725 13.698691 39.9942365  -26.594433 15.9521505 40.4534165  -25.52959 17.016605 40.453805  -24.2422295 14.7631455 39.994625  -22.954869 12.509686 39.535445  -23.989639 12.521785 38.488576  -25.024409 12.533884 37.441707  -34.050043 14.886578 34.063379  -33.673791 13.740821 31.5853885  -34.051285 15.9501745 32.9985405  -35.1157535 14.8868565 32.99739  -36.181464 14.887135 31.931401  -34.7395015 13.7410995 30.5193995  -35.1169955 15.950453 31.9325515  -31.5754815 10.580828 36.84369049999999  -32.639991 9.517526499999999 36.8424825  -32.9828585 11.6965615 38.32058  -30.541712 10.5706075 37.8876805  -30.1988445 8.391572499999999 36.409583  -31.232614 8.401793 35.365593  -36.176571 8.507047 38.316382  -34.7472575 8.4671105 35.7856315  -35.811474 7.404 35.7845255  -34.747023 7.403903 36.8490735  -36.1768055 9.570254500000001 37.25294  -37.241022 8.507144 37.251834  -37.2412565 9.570351500000001 36.188392  -36.17704 10.633462 36.189498  -33.317475 6.300759 35.381765  -36.855152 6.3529 35.7919485  -37.8958865 6.352287 34.7518265  -37.4863 4.197333 33.316367  -35.398595 5.252613500000001 34.348792  -36.4393295 5.2520005 33.30867  -36.4455655 4.197946 34.356489  -35.404831 4.198559 35.396611  -29.1617875 9.4335095 36.404703  -30.195557 9.443729999999999 35.360713  -35.78125199999999 9.519058000000001 33.69969  -35.7846995 8.470065 34.7452355  -37.242096 10.633629 35.124275  -36.846308 9.519225 32.634467  -35.3889115 7.355661 32.2554275  -35.385464 8.404654000000001 31.209882  -34.04839 12.759966 36.191644  -32.638272 11.629099 34.732629  -31.603445 11.6228165 35.77373849999999  -32.640502 10.5808795 35.77861849999999  -31.230384 9.4500125 34.3196035  -30.193327 10.4919495 34.3147235  -31.228154 10.498232 33.273614  -32.98336949999999 12.7599145 37.256716  -31.570468 16.9154165 30.514116  -31.603409 15.8415815 31.5550095  -32.987469 18.0784785 31.9340525  -31.922411 19.143186 31.934403  -30.538351 16.906289 31.55536  -30.186408 14.6785195 30.135073  -27.406664 13.7106195 37.8827165  -26.0580935 11.4992375 37.442669  -27.3746055 14.7865895 36.838805  -27.4073875 15.82119 35.7714235  -28.724104 17.014798 37.2610985  -27.658861 17.01495 38.326189  -26.3421445 15.821342 36.836514  -26.057889 13.5929815 35.34913  -25.025428 14.627734 35.346839  -28.7242765 18.07973 36.1959945  -26.342317 16.886274 35.77141  -27.6590335 18.079882 37.261085  -27.659206 19.144814 36.195981  -32.6390985 12.692405 33.6684965  -33.7034065 11.6290065 33.667587  -34.0492165 13.823272 35.1275115  -35.1135245 12.7598735 35.126602  -36.178659 12.759781 34.06156  -35.114351 13.8231795 34.0624695  -26.3409495 12.663142 39.9959085  -25.022623 10.438588 39.538789  -25.023516 11.486236 38.490248  -26.0572005 10.4515895 38.49121  -34.741168 14.8048355 29.453997  -35.777579 13.739936 29.482485  -36.1831305 15.950871 30.8659985  -35.7792455 14.803672 28.4170825  -35.373694 12.592737 27.033569  -34.3356165 12.5939005 28.0704835  -34.7426035 10.5836475 33.673749  -33.677469 10.58374 34.738791  -34.741794 9.520488 34.737718  -36.1778495 11.6966215 35.125529  -35.11271499999999 11.696714 36.190571  -33.306548 8.407514000000001 33.285938  -37.8861905 9.517034500000001 31.596775  -38.308399 11.69704 32.994561  -39.37217800000001 10.6338915 32.9939305  -40.437204 10.633987 31.928809  -37.8874375 10.5802785 30.532284  -38.9512165 9.51713 30.5316535  -39.373425 11.6971355 31.9294395  -38.309646 12.760284 31.93007  -37.465229 8.400273 29.134498  -31.9214875 18.07895 32.999562  -32.9865455 17.0142425 32.9992115  -29.790264 19.142968 34.066768  -29.5057025 17.9415505 31.552747  -28.439629 17.9414415 32.6189295  -29.4722775 16.90618 32.6215425  -30.8563375 19.143077 33.0005855  -28.1216425 15.7046535 31.173704  -27.088994 16.739915 31.171091  -28.4388765 15.8338065 34.7273175  -27.089378 13.605598 34.305024  -28.1201625 13.6202565 33.259581  -27.088406 14.652967 33.258627  -34.3382135 15.7123825 24.949404  -33.704827 9.5176275 35.7775455  -33.3120115 7.354136500000001 34.3338515  -32.2750445 7.351276 35.373679  -32.269581 8.4046535 34.3257655  -34.3494535 7.357091 33.2934555  -34.354917 6.303713500000001 34.341369  -34.04787899999999 11.696613 37.255508  -31.600981 13.737062 33.661957  -31.9198215 15.9505045 35.1296735  -32.984561 14.8864365 35.1290025  -32.9853035 15.950646 34.06404999999999  -33.674276 15.8473525 29.4783715  -35.118662 17.014189 30.867149  -33.296782 13.637999 28.0652195  -32.9837345 13.8231305 36.193135  -34.047584 8.50695 40.445466  -32.6448865 7.4003675 38.954746  -34.047476 9.570105 39.382419  -32.98301 9.570238 40.446752  -34.739196 12.698752 31.562052  -35.7781805 11.6310405 31.590779  -34.7377935 11.635075 32.6271315  -36.1800615 13.823458 32.9964805  -35.779583 12.6947175 30.5256995  -33.296928 10.510369 31.192703  -34.337315 10.5063345 30.1563505  -35.377702 10.5023 29.119998  -31.6049825 17.9482705 29.4467465  -32.636783 16.9157245 29.4474925  -32.988726 19.143494 30.8677795  -30.5386675 17.9479625 30.51337  -30.1867245 15.720193 29.093083  -29.154924 16.752739 29.092337  -34.053784 18.0787865 30.867429  -32.6357795 13.741848 32.6223725  -33.6734855 12.6984735 32.628041  -33.2972335 11.5527165 30.1500505  -32.259222 11.5537435 31.1870345  -38.313328 14.887006 29.799666  -36.843511 13.7398715 28.4166175  -36.845515 12.694653 29.459832  -37.8882655 12.6877075 28.4240275  -37.463203 10.488409 27.048389  -36.4184485 11.540573 27.040979  -36.4204525 10.4953545 28.0841935  -35.375698 11.5475185 28.0767835  -38.305409 6.380619 38.313971  -35.790701 6.352803 36.8564965  -36.85512 5.289589 36.855291  -38.305441 7.44393 37.2506285  -37.24099 7.443833 38.3151765  -34.750861 6.352009 37.89713  -33.321313 5.248865 36.4298215  -34.361153 5.249659 35.389188  -34.364991 4.197765 36.4372445  -33.325151 4.196971 37.477878  -33.70938 7.400416 37.890204  -33.6863675 6.3519605 38.961672  -35.1120775 8.5069985 39.380924  -32.28367 5.245378 37.470952  -32.279832 6.297272 36.4228955  -32.6407935 17.94913 28.410076  -32.2612855 15.717696 27.0210185  -32.2621165 16.75611 25.9817735  -31.226546 16.754458 27.018996  -37.460951 12.574823 24.964226  -36.4198455 13.620913 24.9592415  -36.4173225 12.58378 25.9988975  -36.845276 14.8040965 27.350627  -35.376217 13.62987 25.993913  -35.7820615 10.5822175 32.635721  -35.381583 9.453476999999999 30.16494  -34.341196 9.457511500000001 31.2012925  -33.301738 9.458941500000002 32.23932050000001  -34.346006 8.406084 32.24791  -32.267351 9.452873 33.279776  -32.262541 10.5043005 32.2331585  -38.955958 8.467
[...]
<PointData  Vectors="u"> 
<DataArray  type="Float64"  Name="u"  NumberOfComponents="3" format="ascii">6.5305826475429242e+01 2.1465064390673554e+01 4.3840899824657157e+01  6.5336744221904681e+01 2.1665738934659036e+01 4.3670601062494562e+01  6.6172681517768225e+01 2.0888362288755207e+01 4.5281575862154561e+01  6.4579446400134003e+01 2.0088214529291751e+01 4.4488354345644900e+01  6.3806502483249702e+01 1.8748359252783903e+01 4.5059571562266015e+01  6.4611558842844161e+01 2.0296521365545708e+01 4.4316865814755467e+01  6.5378325256282267e+01 1.9471834664272791e+01 4.5903073200629976e+01  6.7043342709554238e+01 2.0267691345037392e+01 4.6778097473417930e+01  6.6228336838918395e+01 2.1113665746134842e+01 4.5106753754267956e+01  6.5372928305840574e+01 2.1866464587077395e+01 4.3507578908545931e+01  7.2575653348008188e+01 2.5577560966536044e+01 4.6997545462972795e+01  7.3234678268315122e+01 2.7789843671299757e+01 4.5438772329713167e+01  7.2484821150128440e+01 2.5757169937979391e+01 4.6728944875018229e+01  7.4533922896421771e+01 2.7004562681433232e+01 4.7534230752343156e+01  7.3357052087504485e+01 2.7615637312636988e+01 4.5739349521651341e+01  7.3999385118320532e+01 2.9679609029503339e+01 4.4318524930696327e+01  7.6593845751509818e+01 2.8554888416246218e+01 4.8037508009169862e+01  7.4415987467736699e+01 2.7194013413733405e+01 4.7229275463939260e+01  7.2402646784253207e+01 2.5947096034242843e+01 4.6454996820071045e+01  5.8921788644794596e+01 1.4275988434451770e+01 4.4648174949268295e+01  5.8617749371025880e+01 1.5379579088807295e+01 4.3235366594258785e+01  5.9961248728761561e+01 1.5859483458067428e+01 4.4098880937941779e+01  5.9060294308218538e+01 1.4503690438967862e+01 4.4554982538971927e+01  5.9323854266928457e+01 1.6479719701920658e+01 4.2842633985906041e+01  5.8494197516838938e+01 1.5160152075612263e+01 4.3331930653549747e+01  5.9824355130317926e+01 1.5630092695523247e+01 4.4195422629581060e+01  6.0686402969442149e+01 1.7023294022445800e+01 4.3663518524397510e+01  5.8029160228423351e+01 1.5979223720988534e+01 4.2050973832899196e+01  5.9200494751152078e+01 1.4730882089267064e+01 4.4471418912186941e+01  6.8726107161818305e+01 2.3340294079929230e+01 4.5383416740190171e+01  6.8705836208258120e+01 2.3544831102356305e+01 4.5162171973420314e+01  6.9700726466256981e+01 2.2733784897091894e+01 4.6968382663986041e+01  6.7907604304894747e+01 2.1779406510717251e+01 4.6123659999870505e+01  6.7894024338465172e+01 2.1997062442004527e+01 4.5896723786308684e+01  6.8795983141981736e+01 2.1122379288273791e+01 4.7675831661947065e+01  7.0661959109897083e+01 2.2042176783544697e+01 4.8619765969763513e+01  6.9688885750957326e+01 2.2939465270219959e+01 4.6752038305827192e+01  6.8693344500654817e+01 2.3761430761002671e+01 4.4933047911939958e+01  6.1772520054168815e+01 1.5198481145253387e+01 4.6574703629025997e+01  6.2847135734411665e+01 1.6969760850880615e+01 4.5874469288830127e+01  6.1342476241681389e+01 1.6387902316782817e+01 4.4952094928890141e+01  6.1884755924459057e+01 1.5452890390141510e+01 4.6431133968848016e+01  6.2737843347072420e+01 1.6715830659882762e+01 4.6024245061980345e+01  6.2132272692602477e+01 1.7622274404428008e+01 4.4508451986128527e+01  6.1250780123650927e+01 1.6150387025269758e+01 4.5099155169414203e+01  6.3658189712345475e+01 1.8274852112524968e+01 4.5383681011166253e+01  6.1998525115509089e+01 1.5705906205917643e+01 4.6294343673356501e+01  6.1591904515918934e+01 1.8647682220219696e+01 4.2942136741300672e+01  6.2239851316809848e+01 1.7847299885360254e+01 4.4396327743894751e+01  6.0791919300756568e+01 1.7236145114735535e+01 4.3555266054301981e+01  6.1486785427399170e+01 1.8433951711394791e+01 4.3055058865952354e+01  6.2966556507817437e+01 1.9115809208231308e+01 4.3849613743163040e+01  6.2240201401018339e+01 1.9874832033121066e+01 4.2364731290742540e+01  6.0900490759156227e+01 1.7448486679566912e+01 4.3453304223694907e+01  6.3021395337454706e+01 1.9334928707198003e+01 4.3684027155714041e+01  6.3731004874419838e+01 1.8512300646372072e+01 4.5218350463027321e+01  6.2312936898990110e+01 1.8069501762990690e+01 4.4240796928993298e+01  6.1473290711591027e+01 1.6621792786509058e+01 4.4846083231324734e+01  6.2921911151182655e+01 1.7213457501359208e+01 4.5710079695355994e+01  5.4157695286939934e+01 1.2985876781446292e+01 4.1189859242319123e+01  5.5102309960337777e+01 1.4191659735637604e+01 4.0894542092864697e+01  5.5418053533203853e+01 1.3416886448335232e+01 4.1988723808742279e+01  5.4343051294676634e+01 1.3131926969576716e+01 4.1181488068765177e+01  5.4930718169451850e+01 1.4021337019700825e+01 4.0907722943469857e+01  5.6053904747842182e+01 1.4362259848395071e+01 4.1688137791651407e+01  5.5229625000439391e+01 1.3229791260335716e+01 4.1998436270851109e+01  5.6389730983791473e+01 1.3543037587146122e+01 4.2851040331225498e+01  5.5666504538641043e+01 1.5114163869797157e+01 4.0556355744625534e+01  5.4496819813912758e+01 1.3303702571536183e+01 4.1200635354690078e+01  5.9683091049588988e+01 1.2257008409701916e+01 4.7427978740879531e+01  6.1316261684140812e+01 1.2902580789217025e+01 4.8414789214465792e+01  5.9833047204468592e+01 1.2520064306927921e+01 4.7310311834782873e+01  6.0160467311295669e+01 1.1409767036496222e+01 4.8743081308401358e+01  6.1164101701749800e+01 1.2624008123114026e+01 4.8537799679235498e+01  6.2724361720523795e+01 1.3038449157121205e+01 4.9687487365906613e+01  6.1691455072472777e+01 1.1754743283443291e+01 4.9928895422783867e+01  6.0627585528427410e+01 1.0518301410950835e+01 5.0113087223591620e+01  6.0333668442767461e+01 1.1696595365265267e+01 4.8631218651471571e+01  5.9982212459991558e+01 1.2784006881582357e+01 4.7200459129123026e+01  6.7045547103147669e+01 1.1299525309586571e+01 5.5751503849277114e+01  6.8562852625843192e+01 1.3534091427340268e+01 5.5021578622456239e+01  6.9008616071804198e+01 1.2067168653687681e+01 5.6929346403525201e+01  6.7146147399227686e+01 1.1642881277430417e+01 5.5491887475607776e+01  6.8494511875498745e+01 1.3174537514432140e+01 5.5317700687407950e+01  6.9884329252881528e+01 1.5135591629328609e+01 5.4749765047823715e+01  7.0502038889725696e+01 1.4064450553777313e+01 5.6435781586243294e+01  6.7240973962940330e+01 1.2001030129800990e+01 5.5243839648425336e+01  6.9087422887184900e+01 1.2440194086536559e+01 5.6653387075562229e+01  7.1061877548402450e+01 1.2896079833731109e+01 5.8163810684201906e+01  7.1881282467527313e+01 2.8388356412856236e+01 4.3498522432807569e+01  7.3855050460477472e+01 2.9779785641546045e+01 4.4076452219529180e+01  7.2012406266421365e+01 2.8287240285466456e+01 4.3728866104157476e+01  7.0125115101142768e+01 2.6985932134601065e+01 4.3136829510239018e+01  7.1259094926800458e+01 2.6512501625847126e+01 4.4747971653304155e+01  7.3105002603943802e+01 2.7917562893175965e+01 4.5189490309024805e+01  7.3720396702341105e+01 2.9905991277287328e+01 4.3811736387898790e+01  5.7661937527539024e+01 1.6900584453505449e+01 4.0758953891019381e+01  5.8161223235690741e+01 1.6170540261851986e+01 4.1989072498651225e+01  5.6967033410388865e+01 1.5706961527055180e+01 4.1260079392775708e+01  5.7541980414956761e+01 1.6711711176080868e+01 4.0828279738654871e+01  5.7027103988358881e+01 1.7390624739539820e+01 3.9637243846459562e+01  5.6511122023144615e+01 1.6409453607984027e+01 4.0097832986079503e+01  5.5958193521843093e+01 1.5449285701537045e+01 4.0511216578294345e+01  5.7089805185026812e+01 1.5885275153205562e+01 4.1201973500699857e+01  5.8292150811974260e+01 1.6361254222769013e+01 4.1932302843249403e+01  6.6981371098379952e+01 1.9769157004349697e+01 4.7210995474457135e+01  6.8777957655318872e+01 2.0858080016019610e+01 4.7923169206545033e+01  6.7892143687837319e+01 2.1534792909338385e+01 4.6361860220523639e+01  6.8802496992160584e+01 2.0631257867462292e+01 4.8175402992437888e+01  7.0720617932776676e+01 2.1547924465279376e+01 4.9172476511797612e+01  7.0690982451585811e+01 2.1784217688287182e+01 4.8906522034765686e+01  6.9739811136863281e+01 2.2491112438312527e+01 4.7247353538902573e+01  6.2372711787620645e+01 1.4437057461610346e+01 4.7932532241860287e+01  6.2846687915985619e+01 1.3333767760829270e+01 4.9510720094436515e+01  6.2274372002562103e+01 1.4159627928799468e+01 4.8113648956206077e+01  6.0893755385398741e+01 1.3970099373312223e+01 4.6919945498558775e+01  6.1433361451168004e+01 1.3181608161185411e+01 4.8247893159587754e+01  6.2967675923893751e+01 1.3628066987018839e+01 4.9341994687111296e+01  6.3515465839655640e+01 1.0544813858332507e+01 5.2976486319496061e+01  6.4954645091087400e+01 1.2565826934546443e+01 5.2380309424005169e+01  6.5378787839406456e+01 1.1243286111930271e+01 5.4126763449985383e+01  6.3649561515355614e+01 1.0865876081971374e+01 5.2772870518050198e+01  6.4830505491037513e+01 1.2240201577195196e+01 5.2591802818469027e+01  6.5242894995809863e+01 1.0902498376664273e+01 5.4336818773382419e+01  6.6613803022492107e+01 1.2692430109163768e+01 5.3916887442060357e+01  6.6108165269028717e+01 1.4000579652063635e+01 5.2108235694929363e+01  6.3773623915067120e+01 1.1193328109008569e+01 5.2584480395408924e+01  6.5731758360543139e+01 9.8313978950647378e+00 5.5868864211606940e+01  6.7530272962003664e+01 1.0178622671601605e+01 5.7325663086770312e+01  6.7931879932748586e+01 8.9791887263300527e+00 5.8955451842051069e+01  6.5829891406204709e+01 1.0197615021015235e+01 5.5628850845477444e+01  6.7623276255451842e+01 1.0536961411529029e+01 5.7084140824332451e+01  6.6119335857596127e+01 8.7013055380360917e+00 5.7415231431739002e+01  6.4383615789254065e+01 8.4170873395837607e+00 5.5975556310654845e+01  6.1007796174836457e+01 1.4229963808831334e+01 4.6779128414912670e+01  6.2511650904567375e+01 1.4714139599274127e+01 4.7791708566803699e+01  6.7989580957283479e+01 1.4863890642142167e+01 5.3125195865671820e+01  6.6691346496886737e+01 1.3033661758832693e+01 5.3652509483073707e+01  6.7950005728832807e+01 1.4553785709173670e+01 5.3399783042367126e+01  6.9921995494849583e+01 1.5459647229383735e+01 5.4460981396409473e+01  6.8616973705857092e+01 1.3865683478263552e+01 5.4751138093729608e+01  6.9964966365773805e+01 1.5802071477708310e+01 5.4163456079642991e+01  6.4964096058971862e+01 1.6325234061878295e+01 4.8639521994623486e+01  6.5040290907055038e+01 1.6600672283982124e+01 4.8438903504302210e+01  6.3439203528761141e+01 1.6003976437832691e+01 4.7438692635590691e+01  6.3981538265784771e+01 1.4950689934777882e+01 4.9026826422662722e+01  6.4060096483872144e+01 1.5232858552929860e+01 4.8828966181138519e+01  6.3513704404715909e+01 1.6261580877505033e+01 4.7248331526471837e+01  6.5116955174257953e+01 1.6872288766837183e+01 4.8246705011256985e+01  6.3325644349495761e+01 1.5735582274917729e+01 4.7587912287904423e+01  6.7670210658330461e+01 2.4261047609578473e+01 4.3405817871841592e+01  6.7000725819629622e+01 2.2577574485087979e+01 4.4428507978232872e+01  6.7708478155069102e+01 2.4078493409923400e+01 4.3627964407573636e+01  6.6663372575357542e+01 2.4722955657252225e+01 4.1939074914230162e+01  6.6048967343609561e+01 2.3281288788886538e+01 4.2765018866319757e+01  6.6983020008193620e+01 2.2767356294964589e+01 4.4211993690706379e+01  5.9456030804303964e+01 1.6681289939507813e+01 4.2777683833175630e+01  5.8769553513724013e+01 1.5587619669062397e+01 4.3176758218382069e+01  6.0195213076805722e+01 1.8012721086484042e+01 4.2180168677031041e+01  6.0939898682534746e+01 1.9369393895430331e+01 4.1574173768011534e+01  6.0832048193416014e+01 1.9179914305648122e+01 4.1651366756336238e+01  5.9492266560310576e+01 1.8530812398739609e+01 4.0962313617276948e+01  5.9597978324411770e+01 1.8711695439006359e+01 4.0885332518258281e+01  6.0322930912305928e+01 1.8210305876013525e+01 4.2107603841757843e+01  5.9706750221817103e+01 1.8891265666639175e+01 4.0816466806475582e+01  6.1504209554099951e+01 2.0549349574025694e+01 4.0952855169078305e+01  6.0252043356996374e+01 2.0020423784133289e+01 4.0230352102689324e+01  6.0142408410954637e+01 1.9835909327471523e+01 4.0305374322990517e+01  6.0755443753307162e+01 2.1165565539945955e+01 3.9589813243374032e+01  6.6071664913972924e+01 1.8294460573455567e+01 4.7773405009355486e+01  6.6777628626859951e+01 1.7258761700933338e+01 4.9523113009637250e+01  6.6001201484579425e+01 1.8023500913380047e+01 4.7980467739224764e+01  6.6703091483163135e+01 1.6970845175877841e+01 4.9730069486251224e+01  6.8532665052007928e+01 1.7668820938181646e+01 5.0863549426932657e+01  6.7783804810559275e+01 1.8769743141391874e+01 4.9011017043479221e+01  5.7383368862497896e+01 1.4940996411237402e+01 4.2437769851571325e+01  5.6699591194627359e+01 1.3934371716518571e+01 4.2767886169519151e+01  5.7510750718387882e+01 1.5134215900639335e+01 4.2377393560668750e+01  5.7910585744985447e+01 1.4310010272338474e+01 4.3597636600453008e+01  7.1642843411932546e+01 2.3777078126258534e+01 4.7860309546237950e+01  7.2682650237322591e+01 2.2789651323798477e+01 4.9897134949897335e+01  7.1707717949374512e+01 2.3537947231958309e+01 4.8167291062284804e+01  7.3670564223350326e+01 2.4911040050622262e+01 4.8761155464951969e+01  7.4749142515869536e+01 2.4142839969369376e+01 5.0608349839578132e+01  7.2638145557377285e+01 2.3054248463496251e+01 4.9585836250899519e+01  6.7417755366943524e+01 1.6120826015690579e+01 5.1292079436495044e+01  6.5627994209552341e+01 1.5505053200828019e+01 5.0119905405953091e+01  6.6196059245228199e+01 1.4315128194080550e+01 5.1879156516622174e+01  6.7346660547289943e+01 1.5802409121721386e+01 5.1548741034793899e+01  6.5570645690581742e+01 1.5209268978290361e+01 5.0360130769591258e+01  6.6281978874665739e+01 1.4635796047345943e+01 5.1648922217689510e+01  7.1930741098424434e+01 1.6097961383064280e+01 5.5831941530125050e+01  7.1261448044915312e+01 1.7155286679320515e+01 5.4104357119326323e+01  7.1942409156968623e+01 1.5773116852496113e+01 5.6173662665314431e+01  7.4120170331764712e+01 1.6432281947152408e+01 5.7690572530067300e+01  7.3352587804173510e+01 1.8259880369337395e+01 5.5095324695148435e+01  7.4104375168432213e+01 1.6781464149266199e+01 5.7323245748754402e+01  7.3381998782549545e+01 1.7910791434577618e+01 5.5468076482574830e+01  7.2556112257055020e+01 1.9263016789283824e+01 5.3293074375374729e+01  7.4098881229366242e+01 1.7138867492965517e+01 5.6956641263784093e+01  6.6017790051373254e+01 2.3082221353368638e+01 4.2938313757442018e+01  6.6972911448049430e+01 2.2366944151782299e+01 4.4603930879415365e+01  6.3555240080869126e+01 2.2799094611257534e+01 4.0756413656564241e+01  6.5110499298272217e+01 2.3900132649586507e+01 4.1215224256469540e+01  6.3596502416118213e+01 2.2966840328699931e+01 4.0629473975979352e+01  6.4458497704915104e+01 2.2356044516584173e+01 4.2099889913769168e+01  6.5066328392152982e+01 2.3723360303612512e+01 4.1341784749953298e+01  6.4523089019278743e+01 2.2543634656469589e+01 4.1974414372211861e+01  6.3646556254833577e+01 2.3134499772735321e+01 4.0510794220287131e+01  6.2315109719745145e+01 2.0070232162610218e+01 4.2244352823157094e+01  6.1665937558621820e+01 1.8846120823468350e+01 4.2821217160323684e+01  6.3119624628946248e+01 1.9550872586413483e+01 4.3563123547192284e+01  6.2392836661312678e+01 2.0264151578392422e+01 4.2129590762215180e+01  7.5159091670474353e+01 2.9274089763683079e+01 4.5884670221139778e+01  6.4498316790399741e+01 1.3807210265839789e+01 5.0692600263262733e+01  6.5041451597733442e+01 1.2891558657168462e+01 5.2150903843827514e+01  6.3405138595037471e+01 1.2459428098634159e+01 5.0939358457247913e+01  6.4577368683132548e+01 1.4105340272961474e+01 5.0467044242148312e+01  6.6796897805827030e+01 1.3369340042344081e+01 5.3420677861298515e+01  6.5460031788173026e+01 1.1578232479249698e+01 5.3873926180289928e+01  6.3865008851594318e+01 1.4656464053291696e+01 4.9210967229104497e+01  6.5348909389077733e+01 1.9241501669694223e+01 4.6111873439271797e+01  6.4508614353183759e+01 1.9852168825275797e+01 4.4658830005194112e+01  6.5277618237239096e+01 1.8990914227246524e+01 4.6284368878591337e+01  6.6164939839042745e+01 2.0662991281671459e+01 4.5499928605979981e+01  7.0520253557451568e+01 2.4593364433026650e+01 4.5930823335033246e+01  7.0600895159454296e+01 2.4424157301547236e+01 4.6181127923079302e+01  7.1574000590151840e+01 2.3980920365986552e+01 4.7592707501809912e+01  6.4334916029289602e+01 1.7344003569969178e+01 4.6989585492719215e+01  6.0307364364030462e+01 9.9196607152675220e+00 5.0393423590104092e+01  6.0471656364221964e+01 1.0214500273194949e+01 5.0246342555077661e+01  6.1533884260681290e+01 1.1452526165048353e+01 5.0082666466040962e+01  6.0019778672413381e+01 1.1123927891735896e+01 4.8894546234226318e+01  6.9671943367770638e+01 1.9870206358486602e+01 4.9798045871578111e+01  7.0466221876546882e+01 1.8719565829372090e+01 5.1747937213690442e+01  6.8564584864282949e+01 1.7961368010844645e+01 5.0602569475677903e+01  6.9675483167187920e+01 1.9579676089728583e+01 5.0093461172856919e+01  7.1626836223431184e+01 2.0753241506517277e+01 5.0875492287561585e+01  6.8601001301230681e+01 1.8258859845251319e+01 5.0345522277029673e+01  7.0475537727182783e+01 1.9024153160021861e+01 5.1459224864011951e+01  7.2504618805957747e+01 1.9856144388353975e+01 5.2647569057982608e+01  6.8340419864821698e+01 2.5979999304621376e+01 4.2366718386605093e+01  6.9437097737851431e+01 2.5353302738171596e+01 4.4079781885957182e+01  6.8354005857888836e+01 2.5815493959151954e+01 4.2538481248124661e+01  6.6656737743159695e+01 2.4882961274533791e+01 4.1774074250743809e+01  6.7685007382425937e+01 2.4445298868946395e+01 4.3234905148138182e+01  6.6660496978322044e+01 2.5042589071934856e+01 4.1618200774762762e+01  6.9470917613567011e+01 2.5152834176546467e+01 4.4322904944479987e+01  6.7012956116060195e+01 2.0015585344126265e+01 4.6997491355131032e+01  6.7796947300822509e+01 1.9047979203728502e+01 4.8747885551047965e+01  6.9660782998973232e+01 2.0120865128520755e+01 4.9540715813126297e+01  6.7846687242916289e+01 1.9315112313423477e+01 4.8523873805121276e+01  7.4952225171585070e+01 2.3660324511425578e+01 5.1291602605727604e+01  7.4847349509467293e+01 2.3890966192237347e+01 5.0957063123474285e+01  7.3742318158772775e+01 2.1715894944379496e+01 5.2021285943075839e+01  7.5965326383077809e+01 2.2760863560622642e+01 5.3207682804169863e+01  7.6941614908334230e+01 2.1729583022268638e+01 5.5208672074417265e+01  7.5874770279249447e+01 2.2994824011968344e+01 5.2877065681971239e+01  7.4626416956832173e+01 2.0756991486314821e+01 5.3879223316631190e+01  7.3664176647910011e+01 2.1969575135882486e+01 5.1695195752817121e+01  6.4123425554936631e+01 7.7613642884459395e+00 5.6384449563543981e+01  6.3974942879536094e+01 9.5051316891481790e+00 5.4439903513989329e+01  6.4275928062259013e+01 8.0567558941961099e+00 5.6155471696082856e+01  6.5597458770778985e+01 9.4786917786219220e+00 5.6116381222857058e+01  6.3853143142560995e+01 9.1737788720233659e+00 5.4676140074601001e+01  6.2339189171703175e+01 9.2092644054915311e+00 5.3099737792621028e+01  6.2463820498362708e+01 9.5493999153455444e+00 5.2913213463046340e+01  6.4120222595901595e+01 9.8573785700139478e+00 5.4253242403284247e+01  6.2719402459191613e+01 8.1599557709980122e+00 5.4547356298114636e+01  6.1114488106471967e+01 7.9201544271323385e+00 5.3200986398552935e+01  6.2041365324551286e+01 1.0523497740479844e+01 5.1509259208734747e+01  6.0731883417781276e+01 8.9425006242882628e+00 5.1759917982555173e+01  6.1874636433393157e+01 1.0208467877014145e+01 5.1662725563566326e+01  6.0907843408947926e+01 9.2704215563465873e+00 5.1629433976391361e+01  6.2162079020388454e+01 1.0836198173841847e+01 5.1320523277823668e+01  7.0059907098146866e+01 2.7124347264641539e+01 4.2934727675465545e+01  7.1206861133834138e+01 2.6661058455144602e+01 4.4540419895845922e+01  7.1810170192210293e+01 2.8540748789291399e+01 4.3270141665491614e+01  6.9997410163096660e+01 2.7277470148639473e+01 4.2723891927678523e+01  7.9423933764285906e+01 2.6629276264905467e+01 5.2791943731426706e+01  7.8023823901511946e+01 2.7655281999072255e+01 5.0366142160993846e+01  7.6984990888989287e+01 2.5326295491277531e+01 5.1667766877426693e+01  7.5870789177212643e+01 2.6155267875999272e+01 4.9708853007779254e+01  7.5729160940526938e+01 2.6326054691071498e+01 4.9403571705410023e+01  6.9267913445192605