<?xml version="1.0"?>
<VTKFile type="UnstructuredGrid"  version="0.1"  >
<UnstructuredGrid>
<Piece  NumberOfPoints="6027" NumberOfCells="27681">
<Points>
<DataArray  type="Float64"  NumberOfComponents="3"  format="ascii">-36.188469 19.143198 27.668333  -34.742247 16.912066 27.345687  -35.7836045 16.9051005 26.311295  -35.7817685 15.840805 27.3774265  -35.37874 14.667003 24.954257  -38.316858 17.015456 27.667685  -36.849765 16.9055945 25.2446405  -36.847799 15.8412295 26.310971  -37.2526635 18.079327 27.668009  -37.2546295 19.143692 26.6016785  -38.31882400000001 18.079821 26.6013545  -38.32079 19.144186 25.535024  -34.743078 17.95048 26.306442  -35.784333 17.9429045 25.2727625  -34.3382135 15.7123825 24.949404  -35.3794685 15.704807 23.9157245  -35.380197 16.742611 22.877192  -34.338942 16.7501865 23.9108715  -33.297687 16.757762 24.944551  -37.889026 15.835399 25.2755745  -37.890992 16.899764 24.209244  -37.461194 14.655342 22.883464  -36.419967 14.6611725 23.9188605  -36.845276 14.8040965 27.350627  -37.8889045 14.7951395 26.3159555  -37.460951 12.574823 24.964226  -36.4198455 13.620913 24.9592415  -36.8504935 17.9433985 24.206108  -37.8871395 13.7309145 27.381946  -37.4610725 13.6150825 23.923845  -36.4206955 15.6989765 22.880328  -35.78554 19.008644 24.2058165  -37.2558365 20.2094315 25.5347325  -36.189676 20.2089375 26.601387  -36.190883 21.274677 25.534441  -34.7483215 20.046011 24.205668  -34.744285 19.0162195 25.239496  -34.3429785 17.779978 22.8770435  -33.30576 18.817345 22.876895  -33.6818305 20.045633 25.2725365  -33.683233 21.1115135 24.2052535  -53.205835 -4.255587 25.538577  -52.93625075 -2.99315925 24.1559525  -53.13916475000001 -3.18730825 25.2040325  -53.7377095 -3.53523725 24.8124155  -54.269584 -2.8148875 24.086254  -53.46812525 -2.2728095 23.429791  -53.67103925000001 -2.4669585 24.477871  -53.0724945 -2.1190295 24.869488  -52.8695805 -1.9248805 23.821408  -52.66666650000001 -1.7307315 22.773328  -52.40437625 -3.713509 24.882114  -51.6029175 -3.171431 24.225651  -52.134792 -2.45108125 23.4994895  -52.337706 -2.64523025 24.5475695  -50 -2.087275 22.912725  -50.7347885 -1.56107425 23.2346435  -51.33333325 -1.90900325 22.8430265  -50.80145875 -2.629353 23.569188  -51.53624725 -2.10315225 23.8911065  -52.06812175 -1.3828025 23.164945  -51.469577 -1.0348735 23.556562  -55.333333 -1.374188 22.633931  -54.73478825000001 -1.026259 23.025548  -53.99999975 -1.55245975 22.7036295  -54.8014585 -2.09453775 23.3600925  -54.20291375000001 -1.74660875 23.7517095  -53.40145500000001 -1.20453075 23.0952465  -54.13624350000001 -0.67833 23.417165  -52.939154 0.017528 24.200399  -53.53769875 -0.330401 23.808782  -52.80291025 -0.8566017500000001 23.4868635  -53.60436900000001 -1.39867975 24.1433265  -52.2043655 -0.50867275 23.8784805  -52.27103575 -1.5769515 24.213025  -53.00582425 -1.05075075 24.5349435  -55.333333 4.25641 23.410256  -54.26986925 4.7877715 23.94235875  -53.99999975 3.7134185 23.286581  -54.80151225 4.256125 23.942362  -54.2696915 4.25584 24.474468  -52.936536 4.24478 23.81868375  -53.7380485 4.7874865 24.47446475  -53.46817900000001 3.7131335 23.818687  -52.66666650000001 3.170427 23.162906  -53.2064055 5.319133000000001 24.4744615  -54.80169000000001 4.7880565 23.41025275  -54.27004700000001 5.319703000000001 23.4102495  -53.73822625 5.319418000000001 23.9423555  -53.46835675000001 4.245065 23.28657775  -53.206761 6.382996 23.410243  -52.40507075 5.308358 23.28657125  -53.20658325 5.851064500000001 23.94235225  -52.93671375 4.7767115 23.2865745  -52.1350235 3.7020735 23.16290275  -52.404893 4.7764265 23.8186805  -51.6033805 4.23372 23.1628995  -53.738404 5.8513495 23.41024625  -53.20605 4.25527 25.53868  -52.4045375 3.7125635 24.882899  -52.40471525 4.244495000000001 24.35078975  -52.93635825 3.7128485 24.350793  -51.60320275 3.7017885 23.69500875  -52.13484575 3.170142 23.695012  -51.603025 3.169857 24.227118  -53.20622775 4.7872015 25.00657075  -53.73787075 4.255555 25.006574  -50 2.084444 22.915556  -50.8015125 2.6271505 23.571337  -50.80169025 3.159082 23.03922775  -51.33333325 2.6274355 23.039231  -54.73478825000001 -0.305518 23.04317675  -55.333333 -1.026643 23.175455  -54.73478825000001 0.04202699999999998 23.58470075  -54.13624350000001 0.04241099999999998 23.43479375  -54.73478825000001 -0.678714 23.567072  -55.333333 -0.679098 23.716979  -54.13624350000001 0.7631519999999999 23.4524225  -55.333333 -0.653447 22.65155975  -55.333333 -0.305902 23.19308375  -55.333333 0.06729399999999996 22.6691885  -54.73478825000001 0.415223 23.0608055  -55.333333 0.015992 24.800027  -54.73478825000001 0.389572 24.12622475  -54.73478825000001 0.016376 24.65012  -54.73478825000001 -0.331169 24.108596  -54.13624350000001 -0.330785 23.958689  -54.13624350000001 0.01676 24.500213  -54.13624350000001 0.389956 23.97631775  -55.333333 0.389188 24.27613175  -55.333333 0.04164299999999999 23.73460775  -55.333333 0.414839 23.2107125  -54.73478825000001 0.7627679999999999 23.6023295  -55.333333 0.762384 23.7522365  -55.333333 -0.331553 24.258503  -55.333333 1.508776 22.704446  -55.333333 1.13558 23.22834125  -54.73478825000001 1.135964 23.07843425  -55.333333 0.7880349999999999 22.68681725  -53.53769875 0.39034 23.82641075  -53.53769875 0.017144 24.350306  -50 -4.171087 20.828913  -51.33333325 -3.610542 19.779414  -51.33333325 -4.16342725 19.28224925  -51.33333325 -4.47435775 20.212185  -52.66666650000001 -4.7776285 19.595457  -52.66666650000001 -3.91381275 19.162686  -52.66666650000001 -4.466698 18.66552125  -52.66666650000001 -4.1557675 17.7355855  -52.66666650000001 -3.60288225 18.23275025  -52.66666650000001 -3.049997 18.729915  -51.33333325 -3.9214725 20.70934975  -52.66666650000001 -3.3609275 19.65985075  -52.66666650000001 -4.22474325 20.09262175  -52.66666650000001 -3.671858 20.5897865  -55.333333 -5.38417 18.362001  -53.99999975 -4.2170835 18.545958  -53.99999975 -4.76996875 18.04879325  -53.99999975 -5.08089925 18.978729  -55.333333 -4.83128475 18.85916575  -53.99999975 -3.66419825 19.04312275  -53.99999975 -4.528014000000001 19.47589375  -55.333333 -4.2783995 19.3563305  -55.333333 -3.172629 20.35066  -53.99999975 -3.111313 19.5402875  -55.333333 -3.72551425 19.85349525  -53.99999975 -3.975128750000001 19.9730585  -53.99999975 -3.4222435 20.47022325  -52.674899 6.38274625 23.9423545  -51.87320875 5.30810825 23.81868275  -52.67472125 5.850814750000001 24.47446375  -52.143037 6.3824965 24.474466  -51.87285325 4.244245250000001 24.88290125  -51.0715185 4.23347025 23.695011  -51.07134075 3.70153875 24.22712025  -50.5396565 4.2332205 24.2271225  -52.67436574999999 4.78695175 25.53868225  -51.873031 4.77617675 24.350792  -52.14268149999999 5.318633500000001 25.5386845  -51.34116899999999 4.775927 24.8829035  -52.6745435 5.318883250000001 25.006573  -51.079313 6.381997 25.538689  -50.80948475 5.30760875 24.88290575  -51.61099725 5.85031525 25.53868675  -51.34134675 5.3078585 24.35079425  -52.14285925 5.850565 25.00657525  -51.611175 6.38224675 25.0065775  -50.26982825 3.15883225 23.57133925  -51.8725475 3.712418 25.4150345  -51.071035 3.1697115 24.7592535  -50.53935075 3.70139325 24.75925575  -50.539045 3.169566 25.291389  -51.34086325 4.24409975 25.41503675  -52.67406 4.255124500000001 26.0708155  -52.14237575 4.786806250000001 26.07081775  -52.14207 4.254979000000001 26.602951  -51.3405575 3.7122725 25.94717  -51.07809 4.254688 27.667222  -51.07839575 4.78651525 27.13508875  -50.8085675 3.712127 26.4793055  -51.61008 4.2548335 27.1350865  -50.80887325 4.24395425 25.94717225  -51.61038575000001 4.78666075 26.60295325  -51.0787015 5.3183425 26.6029555  -50.809179 4.7757815 25.415039  -51.07900725 5.85016975 26.07082225  -51.6106915 5.318488 26.07082  -50.2695225 2.627005 24.1034725  -50 0 25  -50.7347885 0.003674249999999993 23.75717  -50.7347885 0.004382 24.80009975  -50.7347885 -0.51743675 24.278281  -50 -0.000707750000000007 23.95707025  -51.469577 -0.51305475 24.07838075  -50.7347885 -0.5181445 23.23535125  -50 -0.001415500000000014 22.9141405  -51.469577 0.008763999999999999 24.6001995  -50 -0.52181875 24.47818125  -50.7347885 -1.0392555 23.75646225  -50 -0.5225265 23.4352515  -50 -1.0436375 23.9563625  -50.7347885 0.525493 24.27898875  -50.7347885 0.52478525 23.236059  -51.469577 1.050986 23.5579775  -51.469577 0.529875 24.0790885  -50 0.521111 24.478889  -50 0.52040325 23.43595925  -50.7347885 1.046604 23.75787775  -50 1.042222 23.957778  -50 1.563333 23.436667  -50.7347885 1.567715 23.23676675  -50 1.04151425 22.91484825  -50 -1.56545625 23.43454375  -50 -1.04434525 22.91343275  -52.2043655 0.013146 24.40029925  -51.469577 0.008056249999999992 23.55726975  -52.2043655 0.534257 23.87918825  -51.078457 -4.254536 27.667007  -50.286896 -4.244590000000001 26.46851425  -50.28687275 -3.71255325 27.000574  -50.80884275 -3.71272075 26.4784365  -50.5392285 -3.1709055 25.289866  -49.49531175 -3.70260725 25.80208125  -50.01728175 -3.70277475 25.27994375  -50.0172585 -3.170738 25.8120035  -49.4952885 -3.1705705 26.334141  -49.495335 -4.234644 25.2700215  -51.07848025 -4.786572749999999 27.13494725  -50.80886599999999 -4.2447575 25.94637675  -51.0785035 -5.3186095 26.6028875  -50.28691925 -4.77662675 25.9364545  -51.07855 -6.382683 25.538768  -50.28694249999999 -5.3086635 25.40439475  -50.80891250000001 -5.308831 24.88225725  -50.80888925 -4.77679425 25.414317  -50.53925175000001 -3.70294225 24.75780625  -50.539275 -4.234979 24.2257465  -50.017305 -4.2348115 24.747884  -51.07852674999999 -5.85064625 26.07082775  -49.7476675 -3.1609595 24.09137325  -49.47803 -2.0871075 23.4348625  -50.26961425 -2.62909025 24.1012955  -49.2256975 -3.160792 24.61351075  -49.74764425 -2.62892275 24.623433  -48.95606 -2.08694 23.957  -50.2696375 -3.161127 23.56923575  -47.91212 -2.086605 25.001275  -48.7037275 -3.1606245 25.13564825  -48.43409 -2.0867725 24.4791375  -49.22567425 -2.62875525 25.1455705  -48.70370425 -2.62858775 25.667708  -51.078472 -8.511155 23.410373  -49.7550275 -7.94772775 23.29724475  -50.2867845 -7.948127 22.7650
[...]
<PointData  Vectors="u"> 
<DataArray  type="Float64"  Name="u"  NumberOfComponents="3" format="ascii">7.3999385118320532e+01 2.9679609029503339e+01 4.4318524930696327e+01  7.3234678268315122e+01 2.7789843671299757e+01 4.5438772329713167e+01  7.5290886333263217e+01 2.9169259584371613e+01 4.6123627896593398e+01  7.4533922896421771e+01 2.7004562681433232e+01 4.7534230752343156e+01  7.6593845751509818e+01 2.8554888416246218e+01 4.8037508009169862e+01  7.6933038570470856e+01 2.8250818976508636e+01 4.8681126761330049e+01  7.7520628419673073e+01 3.0699186025278191e+01 4.6814571913010283e+01  7.6756675210327344e+01 2.8394532583784084e+01 4.8364120076044408e+01  7.5467818356532575e+01 2.9016006897172286e+01 4.6450482635899540e+01  7.6115722114373668e+01 3.1225732633415049e+01 4.4893749781754572e+01  7.7731253538464244e+01 3.0566152170400471e+01 4.7163589327564431e+01  7.8365803622836651e+01 3.2909289709648661e+01 4.5455524843676514e+01  7.3855050460477472e+01 2.9779785641546045e+01 4.4076452219529180e+01  7.5903104465173968e+01 3.1275521174460412e+01 4.4634319590730875e+01  7.5159091670474353e+01 2.9274089763683079e+01 4.5884670221139778e+01  7.7319581991184080e+01 3.0786339614444312e+01 4.6534036716070467e+01  7.7886391257502538e+01 3.2995492361208946e+01 4.4887228794578540e+01  7.5749211353034724e+01 3.1397245179047577e+01 4.4354680448231598e+01  7.3720396702341105e+01 2.9905991277287328e+01 4.3811736387898790e+01  7.9089198354471876e+01 2.9901351086453055e+01 4.9195576701364303e+01  7.9849580607137156e+01 3.2367257414645827e+01 4.7484085619429720e+01  8.1352802362311962e+01 3.1690154171908908e+01 4.9657621684544061e+01  7.8880228223275154e+01 3.0053597509375798e+01 4.8837602430624173e+01  7.5870789177212643e+01 2.6155267875999272e+01 4.9708853007779254e+01  7.8184266590405329e+01 2.7508139124549384e+01 5.0679443775252800e+01  7.9423933764285906e+01 2.6629276264905467e+01 5.2791943731426706e+01  7.8023823901511946e+01 2.7655281999072255e+01 5.0366142160993846e+01  7.8121002731721148e+01 3.2946123629571026e+01 4.5176048823707383e+01  7.7120796517221208e+01 2.5079344279428284e+01 5.2046657664136234e+01  8.0470596514966275e+01 2.9148910805286739e+01 5.1324299777998050e+01  7.9624897190370561e+01 3.2415329317414930e+01 4.7208295969964723e+01  7.6374979858874454e+01 3.3417824252644131e+01 4.2957368364766175e+01  7.6608310113049185e+01 3.3361941592786167e+01 4.3245462134109673e+01  7.4523185605927921e+01 3.1710572784922995e+01 4.2809775388462185e+01  7.4910951162526558e+01 3.3747780314328132e+01 4.1165544010271510e+01  7.4717635992949212e+01 3.3743109641422755e+01 4.0973842476385045e+01  7.4353655028870818e+01 3.1803533894371597e+01 4.2544100512906766e+01  7.6203500392088699e+01 3.3435641955329849e+01 4.2770159731937056e+01  7.4548045476319160e+01 3.3783946419962156e+01 4.0763731169744077e+01  7.2792598996325438e+01 3.2140811740129635e+01 4.0658582256427302e+01  7.3055482454690193e+01 3.3994845748451120e+01 3.9061230872167990e+01  6.5565799896218508e+01 1.1404885071445365e+01 7.7001995095990253e+01  4.6831536087312713e+01 2.4674377637716463e+00 9.2118319778797513e+01  5.4089861691242540e+01 8.5669914819358848e+00 8.1617543196941540e+01  4.8541916072403190e+01 1.3951109025668620e+01 7.8050688019601836e+01  2.6400770485637505e+01 1.2495895926344664e+01 8.3065990364204012e+01  2.9636089135932163e+01 1.2756722199333324e+00 9.8925325300947065e+01  3.6411145247319325e+01 8.2407878009672757e+00 8.5899297710459919e+01  4.4174846813372064e+01 4.1805887463482430e+00 8.8245624299219187e+01  3.7246253814740165e+01 -1.3422550717322237e+00 1.0068836100302535e+02  3.0154016127311795e+01 -6.1315565430428656e+00 1.1348318370817105e+02  6.2380984232217202e+01 2.5331565730911323e+00 8.7173047995517436e+01  6.2613095101713263e+01 -7.3503044947146741e+00 9.9339879965719632e+01  4.6959653033589838e+01 -8.0117618799246610e+00 1.0731198941098492e+02  5.3415293925865306e+01 -8.2143207156475717e-01 9.4455381869747569e+01  8.0064878132858681e+01 -5.7298429519369201e+01 1.5878746965761536e+02  3.7187031737146008e+01 -3.0986624044804827e+01 1.3983366875000959e+02  3.9156401380247623e+01 -1.8855747436137221e+01 1.2684295617554577e+02  7.0911133431766515e+01 -1.9009485261776732e+01 1.1606848701765222e+02  5.3581756974554430e+01 -1.1447126978650267e+01 1.1079319891537098e+02  3.4612804665884674e+01 -7.9956213839695867e+00 1.1606748074892307e+02  4.2426597696333722e+01 -1.0920625098027081e+01 1.2130105494420592e+02  -1.5527082054637864e-01 1.5193490948774011e+00 1.0463271787865204e+02  7.8783952150075613e+00 1.1994199050561405e+00 1.0255135183248538e+02  1.6270656255566603e+01 -7.4768783234116476e-01 1.0669473938481860e+02  9.3220976064227230e+00 6.0519250688212551e+00 9.3697906614174286e+01  1.8928051331497166e+01 4.6427914797435159e+00 9.3806282759435277e+01  2.3356909108876437e+01 -1.3869875288480455e+00 1.0673929832460553e+02  1.5939682915475677e+01 9.8484184715942780e-01 1.0073766164553628e+02  3.3452537392416431e+01 -1.2652253108796642e-02 1.0050398505114617e+02  2.4435507153651635e+01 1.1256896750579375e-01 1.0007837549169176e+02  3.0361610109489568e+01 -1.9107070970068754e+00 1.0783788871523728e+02  2.8388434970323395e+01 2.6967118443719933e+00 9.4015643630326451e+01  3.6283953623416991e+01 -1.9845545091802712e+00 1.0954678430082835e+02  4.4590123090735162e+01 -3.1281441196059228e+00 1.0287513233657089e+02  3.7053870217637026e+01 7.6197050097523200e-01 9.5110813951494393e+01  1.1182882629777616e+01 -3.3546238418167718e+01 6.3697076885311368e+01  5.3335452459656970e+01 -2.1230007719169524e+01 7.2397227512377171e+01  3.2774342321941305e+01 -9.8844120173807788e+00 8.6952363937693377e+01  3.6824355198483879e+01 -2.9315594995190629e+01 6.7048191292458057e+01  4.9939618739183864e+01 -2.1240334128817533e+01 7.2052258742194780e+01  5.5092594160526154e+01 -3.3374905009340861e+00 8.9121725806965514e+01  5.9954159230170568e+01 -1.5677228383348945e+01 7.5074907204802429e+01  4.4423221717010122e+01 -6.9270372509439113e+00 8.7615408241560459e+01  4.4132574412214076e+01 4.6323779200283894e+00 1.0265687769962022e+02  6.9093876304919917e+01 -9.9938158429206254e+00 7.8673467918110020e+01  3.6020096181510624e+01 -2.6757664149659181e+01 6.7765330762011288e+01  5.1599682328786656e+01 -2.0012587048427317e+01 7.2965341051909860e+01  6.2100919667469931e+01 -1.5529372039269907e+01 7.6471424939081103e+01  4.4910807659896520e+01 -5.5328824908519616e+00 8.8214611822849349e+01  7.2526991306356251e+01 -7.1050525884729527e+00 7.9098914844518688e+01  6.5829664522484492e+01 2.4870234650786416e+00 9.0377129913676384e+01  7.1590857241991216e+01 -8.4592393738905116e+00 7.9508835266461460e+01  5.5940552379151363e+01 -1.2931337421297755e+00 9.0002565374425174e+01  5.5317866499613373e+01 8.5498387248572882e+00 1.0302885444247980e+02  6.4668895723623024e+01 9.6613742503864264e-01 9.0136607488297955e+01  6.6132626459186000e+01 1.2340745982510498e+01 1.0295848286775617e+02  6.3437758894780863e+01 -1.2806119757352260e+01 7.6805027196664440e+01  6.5561419757197868e+01 -1.1479794637761579e+01 7.6971714834133877e+01  6.2407176640821405e+01 -2.5116956446781460e+00 8.7178353352220569e+01  6.3033137964046418e+01 -1.2567658723158479e+00 8.8088190439136085e+01  5.4230454082332699e+01 -4.4981297179232378e+00 8.7165753019474209e+01  6.4555145160067354e+01 9.1678999349696326e+00 1.0098805825623899e+02  5.4077085761802834e+01 5.8349218728076364e+00 1.0117809128593045e+02  6.2546004776688193e+01 7.2169582361417985e+00 9.9220452825820303e+01  6.7692774840428768e+01 -1.0933462387006900e+01 7.8351270883308871e+01  5.8846870875572030e+01 -1.6086267718529413e+01 7.5529219918757562e+01  7.9160093089913431e+01 5.5617008074447867e+01 1.5739277535734709e+02  7.0873499434223277e+01 1.8908744091687844e+01 1.1598038765756917e+02  7.1504955533351335e+01 1.9887449186382693e+01 1.1516615089139967e+02  5.3055533064848781e+01 1.8326258536142063e+01 1.1860892760567475e+02  7.2415361820082591e+00 4.1215253862473117e-01 1.0336875435793999e+02  -2.1296697063171856e-02 2.0716899789334584e+00 1.0005884469585496e+02  8.2005963934779675e+00 -2.0008566801475364e-01 9.7669409286216307e+01  1.5862637614149827e+01 -4.9657444023321874e-02 1.0111801795109409e+02  8.7842593528247335e+00 1.7556272568184954e+00 9.7238864787899658e+01  -4.6621927131406150e-02 2.4550189303737318e+00 9.4785013525291845e+01  1.6182706306286953e+01 -1.0742594261002856e+00 1.0037021867233537e+02  3.8907136917330093e-01 2.5714031201602622e-01 1.0644317861110342e+02  -5.7667050892576663e-02 5.3769945210236092e-01 1.0126705549532508e+02  6.2565089428353080e-02 7.6010551108478428e-03 1.0670264328433612e+02  7.3046412157342022e+00 -4.2011883137123468e-01 1.0306391425120084e+02  -7.6140513194872372e-01 -1.1775173984994257e-01 8.2632224666941042e+01  9.6905016248562248e+00 -1.7164641896248276e+00 9.1343107077280351e+01  1.0549182353692116e+01 -9.6891440051937061e-02 8.5589221754309875e+01  9.6506462792720633e+00 1.2970000375132400e+00 9.1686197360092976e+01  1.7949480119117094e+01 8.6472470534930379e-01 9.5408865624266326e+01  2.0063064674889848e+01 -7.4710482323539010e-02 8.9591953449531744e+01  1.8083384271338751e+01 -1.2823896025108075e+00 9.5092576206437812e+01  1.2892750755851759e-01 -2.1454821718209414e+00 8.9144028150764427e+01  1.8120054526701787e-01 -2.8492321930624848e-01 9.5233689128502149e+01  -7.4603817914120685e-02 -8.9936569549371370e-01 1.0106948190078020e+02  8.9369889064861177e+00 -2.1979924277873333e+00 9.6610894019536644e+01  -2.7805691691572400e-02 -2.7972496682129959e+00 9.4159456803559934e+01  1.3837242955452361e-01 1.7966782474583551e+00 8.9430943431199111e+01  -3.5759545915392876e-02 -1.8703740260326636e+00 1.0341011131452460e+02  -1.4633799016747062e-01 -2.6012887409063459e+00 9.9122133027608228e+01  8.0098786103925264e+00 -1.6572197521399203e+00 1.0161538433786366e+02  2.8506673364177026e-01 -5.5183964939879071e-01 1.0575542572268901e+02  2.4572531888939984e+01 -2.8375093816821439e-01 9.9792995572651279e+01  2.7799750800283160e+01 -4.9248375475807259e-02 9.4220423494707248e+01  8.2358903471405327e+01 -7.7355136205254183e+01 1.7015052395963770e+02  2.0949312702852250e+01 -3.5654448023712582e+01 1.4448907105630954e+02  1.6679841512461273e+01 -3.9971741573361790e+01 1.4678483505178792e+02  4.0374546165579261e+01 -4.0606635187527353e+01 1.4014706833942944e+02  3.1029888816685169e+01 -2.8136192943466803e+01 1.2857359340951695e+02  2.0695314251469942e+01 -2.7995015539863083e+01 1.3778918912574898e+02  2.2114326472254483e+01 -3.2981206841565680e+01 1.3979921425153117e+02  1.3730408254244541e+01 -3.5017347496776196e+01 1.4861719167126031e+02  1.2748491690107489e+01 -2.9306623776062164e+01 1.4664034380044131e+02  1.2662313581102358e+01 -2.3928641096227626e+01 1.4457212292028478e+02  4.0018564589268372e+01 -3.6845886430073215e+01 1.3920108364644008e+02  1.8816901268547063e+01 -2.3028465903047451e+01 1.3611470775369654e+02  2.9709571148711440e+01 -2.3640615726217806e+01 1.2733014655872630e+02  2.7595005385350142e+01 -1.9949906537333966e+01 1.2586989848161285e+02  2.9492439599043185e-01 -2.5388189618991692e+01 1.2553701224781206e+02  1.0124002742194529e+01 -2.5059672638672403e+01 1.3537373181872778e+02  9.9735992235364126e+00 -2.9858197055462892e+01 1.3646875127145302e+02  1.5860519144681357e+01 -2.4053881802009954e+01 1.2485584731494215e+02  2.7048393255764414e-01 -2.0983730409523410e+01 1.2483856473167545e+02  9.8270283679378370e+00 -2.0189935310119623e+01 1.3379118009634621e+02  1.4490062651794807e+01 -1.9375779131848059e+01 1.2384199473296201e+02  1.6514003623681761e-01 -1.6420582949324714e+01 1.2374431905580182e+02  -7.6551913435736321e-02 -9.0599991438310639e+00 1.2058715929661534e+02  9.7436608212330214e+00 -1.5911720883770036e+01 1.3167400958738776e+02  2.9708602730971240e-01 -1.2710413524660138e+01 1.2242639767506468e+02  1.4880990745269900e+01 -1.5342540446386270e+01 1.2247234137618725e+02  1.3779847704079335e+01 -1.2135995241294260e+01 1.2117249094245567e+02  7.8148606954607473e+01 -3.0629843694161605e+00 8.1551396938366523e+01  7.2821501499570772e+01 4.0081713161971306e+00 8.9875758748759850e+01  7.5923005240318133e+01 -4.1949577325218055e+00 8.0825941759129634e+01  8.1931937855565792e+01 9.5636838953182937e-02 8.1849779808929938e+01  6.9644014337671067e+01 4.6415835353841939e-01 8.7352425685969962e+01  7.2893021488762031e+01 1.1039897051342919e+01 9.9380783190421766e+01  7.1010036766298725e+01 9.3980417443367568e+00 9.7645053244907047e+01  7.8315908785047242e+01 1.0148741792635425e+01 9.4802615697597773e+01  7.2485110928041593e+01 -6.7528219076514100e+00 7.9474191365799342e+01  7.1089431846539625e+01 2.4126244939744885e+00 8.8468371119982791e+01  7.7966670926228787e+01 -3.0001916946860661e+00 8.0745067227436280e+01  7.6112944587631830e+01 3.7722151281036820e+00 8.7589858158447669e+01  7.4043908344220341e+01 -5.9354957625755276e+00 8.0844664709295856e+01  8.5599831874801851e+01 4.1963233233544397e+00 8.1224581011215918e+01  8.1100211668964761e+01 5.9070647523835751e+00 8.6330254021512360e+01  8.2217414448368388e+01 1.0092019558248877e+00 8.1255241056617024e+01  7.7864433713537991e+01 5.2075207263960408e+00 8.7883476458689827e+01  8.0277872532015664e+01 -1.1523099423543948e+00 8.2045964770917081e+01  8.4339906326158129e+01 2.2485134829663198e+00 8.1969229982207253e+01  8.3816772205915768e+01 1.6998993296991902e+01 1.0883169178458307e+02  6.8318026891876059e+01 -6.3351262080212956e-01 8.5777220046799869e+01  7.0564209380519912e+01 6.7099668857371677e+00 9.6161732215270803e+01  7.6818839851082004e+01 7.8082375729404125e+00 9.3393104342596928e+01  7.5363367596474305e+01 5.7337167360794572e+00 9.1598991424523064e+01  7.4454060459788181e+01 2.1431212394957493e+00 8.6241845739636176e+01  7.1172017964075067e+01 -7.7795278483814503e+00 7.8808825761469308e+01  7.5974928735824918e+01 -3.8807691674557914e+00 8.0144568347713488e+01  7.4447081195499337e+01 -4.6273410382849054e+00 7.9115654218441918e+01  7.3281806317885398e+01 8.1040177134912816e-01 8.5029158762964897e+01  7.8537902988983262e+01 -2.0118365752169703e-01 7.8711117784010028e+01  8.0057941388851788e+01 5.4549310444808519e-01 7.9616734239979024e+01  7.6327092688781633e+01 1.6634510717255300e+00 8.2811459832445777e+01  7.7279284381670848e+01 -2.1444941226648226e+00 7.9436235110219087e+01  7.7707753176831091e+01 2.7607323301821536e+00 8.4303493928826825e+01  7.8577352742210152e+01 -1.1847799461638839e+00 8.0207561777456206e+01  8.1669546021005885e+01 1.5053766295117281e+00 8.0230105917209741e+01  7.9269138095945351e+01 4.2283619911665875e+00 8.5151448579412929e+01  8.3624053172574961e+01 2.7470225302633797e+00 8.0855914426223720e+01  8.0590528415778607e+01 -2.7099796247665031e-01 8.1240819368243834e+01  8.2740665729777461e+01 1.2375625163641892e+01 1.0377371449899351e+02  8.2212467353531622e+01 -5.0113684846190865e-01 1.2724292423914892e+02  3.0413076509792361e+01 1.4558848221643547e-01 1.3296648062674561e+02  5.6724110923695378e+01 -2.2217741977539704e-01 1.2292599265065344e+02  4.1139308142478761e+01 -1.5228581721138509e+01 1.3303029054903956e+02  -2.1720863157269346e+01 1.1531927089441676e+00 1.5940416009769686e+02  4.4039304063332359e+01 -4.7905701226444011e+00 1.1671490264868079e+02  2.0826301620027884e+01 -1.0085205062450573e+01 1.3462927379271750e+02  3.2384488685358956e+00 -6.6485400341875678e-01 1.3886675437747334e+02  5.0163879350024459e+01 -9.6754016066798273e-02 1.1079198700340500e+02  8.6992907175385099e+01 -3.9083764728023198e+01 1.5554418674699326e+02  4.4118615624739597e+01 -2.1775017274215191e+01 1.3456368356494602e+02  -5.0175535799363153e+00 -2.2488695121661177e+01 1.4710158031053840e+02  8.1702513660782699e+01 -4.5193468630961512e+01 1.5266158504758991e+02  4.1495625119640678e+01 1.6412987191417468e+01 1.3336992379672319e+02  2.1097654694949664e+01 1.0058783205034731e+01 1.3528037907017131e+02  4.2047858535521357e+01 1.0572412511620758e+01 1.2098508078131562e+02  4.4344063279689244e+01 4.8423432314928601e+00 1.1651821636302383e+02  8.9966419430196467e+01 3.5606587152947753e+01 1.5172799940212073e+02  -4.5816992058527077e+00 2.4771277908191362e+01 1.4894362969595895e+02  4.5611989978345960e+01 2.2308440892689013e+01 1.3506058510444146e+02  8.2843409601077511e+01 3.9741063035845393e+01 1.4735891926104819e+02  1.0177325843810429e+02 5.6174176473032709e+01 1.6035727507078400e+02  3.6963822716626836e+01 3.2034593578074535e+01 1.4077495716346999e+02  -5.2326748901981670e+00 3.7420606029073248e+01 1.5439448144874541e+02  9.8508958098297541e+01 -6.0861092660205223e+01 1.6558021155471673e+02  -6.0282468581793447e+00 -3.5991609072387227e+01 1.5385861602720647e+02  4.1610365544264745e+01 3.5520434008026971e-02 1.0453000524587486e+02  3.4713325728389613e+01 1.1419100675476775e-01 1.2224349366481152e+02  3.6375234974707730e+01 2.2627307744242096e+00 1.0969082451735730e+02  7.8597971977143260e+01 2.2200629881781345e-01 7.8673533635447967e+01  7.9530302259890178e+01 -3.3499977235175296e+00 8.2125589943240286e+01  7.8286959640198205e+01 -2.5099849399258698e+00 8.1599645254715398e+01  7.6223165256307553e+01 -1.6791981193840599e+00 8.2876758406506767e+01  7.5343533174635553e+01 -5.7861654167815644e+00 9.1563409701748355e+01  8.1875233468648219e+01 -5.9431372444118331e+00 8.5321905009009882e+01  8.0406155682577733e+01 -6.9273268669124377e+00 8.8954789915606327e+01  7.8871327964549309e+01 -4.9968957696080354e+00 8.7839017159280885e+01  8.0016205195979921e+01 -4.5010469356443279e+00 8.4176787684585790e+01  8.3330558057638285e+01 -7.6315788686800792e+00 8.6356195438466003e+01  8.0335501877845758e+01 -6.1739467151150951e-01 7.9785239178015146e+01  7.7952747757823488e+01 -2.7473553831190465e+00 8.4469203893330715e+01  8.2027509717303943e+01 -1.5104951437005483e+00 8.0195270558785111e+01  8.1292339384487136e+01 -5.1087455423753223e+00 8.3696918758607936e+01  8.5601680210468786e+01 -4.2407222251450580e+00 8.1246244980761290e+01  8.2886429120205065e+01 -6.2777766677565374e+00 8.3886056900090210e+01  8.1115772456344388e+01 -5.9067793770167238e+00 8.6329399750687728e+01  7.9286333419786388e+01 -4.2259650518282159e+00 8.5037396018510805e+01  7.7272201688799697e+01 -8.0432668730948027e+00 9.3650960142528916e+01  7.8216337219836120e+01 -1.0206933593227495e+01 9.4835733965569801e+01  8.2145583546652006e+01 -8.5553645740385065e+00 9.0503126412061363e+01  8.3897446185017017e+01 -2.8995388695999371e+00 8.1086124810254049e+01  8.5603973011821495e+01 -1.1172580073755546e+01 9.7922378629226202e+01  1.2761552188436116e+02 -1.1090095244957338e+01 1.0602942189629015e+02  8.2870737620938300e+01 -1.1731459939881301e+01 1.0333739040647731e+02  8.7411552695851043e+01 -8.8293792671108466e+00 9.2481143073349244e+01  8.5300565054657667e+01 -1.0667975324145868e+01 9.9342998024296051e+01  9.7800111909341297e+01 -7.5538021643403255e+00 9.6318871935738244e+01  8.4112012922590409e+01 -1.6577610864239126e+01 1.0857031144857376e+02  8.8134115132389610e+01 -3.9876282871855802e+00 8.4146980732656644e+01  8.5672657175609046e+01 -6.8498023765321863e+00 8.6601016477005501e+01  9.1430780585563824e+01 -4.0381907442593024e+00 8.7254375973160748e+01  8.5210425153723804e+01 -6.5932124179608920e+00 9.0406456465596520e+01  8.4148800486783244e+01 -5.1560797488042294e+00 8.5464468207210459e+01  9.3889850791596956e+01 -1.2364074051528640e+01 8.1381983636870700e+01  9.3387468848036903e+01 -1.6690206917748544e+01 8.3146571158113176e+01  9.2770464398903059e+01 -1.7472313888174792e+01 8.5958421339770609e+01  9.0639911566351401e+01 -1.4482510684255908e+01 8.5316637085051411e+01  9.1122900884883620e+01 -1.6071631487465236e+01 8.8955879693625377e+01  9.5467780739704551e+01 -1.9568660704771887e+01 8.5626698997830033e+01  9.3415030899719284e+01 -1.7168553645780587e+01 8.5545545994168862e+01  9.3187718081968299e+01 -1.8492316204192925e+01 8.9152031942057604e+01  9.5333237326711213e+01 -2.1393687446578046e+01 8.9440224256379210e+01  9.4426450942236201e+01 -1.8143478734968749e+01 8.2350566932857802e+01  9.4058762154190873e+01 -1.3409692036959289e+01 8.086285