<?xml version="1.0"?>
<VTKFile type="UnstructuredGrid"  version="0.1"  >
<UnstructuredGrid>
<Piece  NumberOfPoints="6020" NumberOfCells="26977">
<Points>
<DataArray  type="Float64"  NumberOfComponents="3"  format="ascii">-55.333333 12.25173 -7.063648  -55.333333 13.14275325 -7.05619225  -55.333333 13.44337075 -6.37956075  -54.66680675000001 13.3811 -6.55580625  -54.0002805 14.51047 -6.0479645  -54.66680675000001 14.27212325 -6.5483505  -54.66680675000001 14.57274075 -5.871719000000001  -55.333333 14.6350115 -5.6954735  -55.333333 14.334394 -6.372105  -55.333333 14.0337765 -7.0487365  -55.333333 12.5523475 -6.3870165  -54.66680675000001 13.6817175 -5.879174750000001  -55.333333 13.74398825 -5.70292925  -55.333333 12.852965 -5.710385  -54.66680675000001 12.49007675 -6.563262  -54.0002805 13.61944675 -6.055420249999999  -54.0002805 12.7284235 -6.062875999999999  -54.66680675000001 12.79069425 -5.8866305  -54.0002805 13.92006425 -5.37878875  -54.66680675000001 13.982335 -5.20254325  -54.0002805 13.029041 -5.3862445  -54.66680675000001 13.09131175 -5.209999  -55.333333 15.815823 -7.033825  -55.333333 14.92479975 -7.04128075  -55.333333 15.22541725 -6.36464925  -54.66680675000001 15.1631465 -6.54089475  -53.33375425 13.8577935 -5.55503425  -53.33375425 12.96677025 -5.562489999999999  -50 12.498926 -12.501074  -50.66778 12.3964365 -11.35356325  -50.66778 11.8750195 -11.87498025  -51.33333325 12.80969525 -11.826762  -52.66666650000001 13.1204645 -11.15245  -52.00111325 12.70720575 -10.67925125  -52.00111325 12.18578875 -11.20066825  -51.33556 11.251113 -11.2488865  -51.33556 11.77253 -10.7274695  -51.33556 12.293947 -10.2060525  -50 13.020343 -11.979657  -50 13.54176 -11.45824  -50.66778 12.9178535 -10.83214625  -51.33333325 13.33111225 -11.305345  -50 14.584594 -10.415406  -50.66778 13.4392705 -10.31072925  -51.33333325 14.37394625 -10.262511  -51.33333325 13.85252925 -10.783928  -52.00111325 13.22862275 -10.15783425  -52.66666650000001 13.6418815 -10.631033  -52.66666650000001 14.1632985 -10.109616  -50 14.063177 -10.936823  -55.333333 13.742003 -9.803826000000001  -54.66777975000001 12.80732725 -9.852044250000001  -53.99999975 13.95265075 -9.956721000000002  -53.99999975 13.43123375 -10.478138  -53.33444650000001 13.017975 -10.00493925  -53.33444650000001 12.496558 -10.52635625  -54.00222650000001 11.8726515 -9.9002625  -52.67112 10.0033 -9.996699  -53.33667325 10.93797575 -9.94848075  -52.66889325 12.08329925 -10.0531575  -52.66889325 11.56188225 -10.5745745  -52.00334 11.1486235 -10.10137575  -52.00334 10.6272065 -10.62279275  -51.076355 12.770722 -19.152923  -50.5442465 12.2388135 -20.21694  -50.2852435 11.66250375 -19.05225275  -50.54423749999999 12.77094325 -19.68481925  -50.01212 12.7711645 -20.2167155  -49.753135 11.13059525 -20.11626975  -50.012129 12.23903475 -20.74883625  -49.75312599999999 11.662725 -19.584149  -49.494132 10.5542855 -18.9515825  -50.012138 11.706905 -21.280957  -51.076364 12.23859225 -19.68504375  -51.076373 11.7064625 -20.2171645  -50.54425550000001 11.70668375 -20.74906075  -50.2852525 11.130374 -19.5843735  -48.947885 12.771607 -21.280508  -49.4800115 12.239256 -21.2807325  -49.2210085 11.66294625 -20.11604525  -49.4800025 12.77138575 -20.74861175  -50.0121165 19.1563355 -13.8315485  -49.75516625 18.0010695 -13.2437645  -50.01212049999999 18.62423675 -14.36364325  -50.2873 18.00072375 -12.71197625  -50.54425424999999 18.623891 -13.831855  -50.0121245 18.092138 -14.895738  -49.75517025 17.46897075 -13.77585925  -49.498216 16.8458035 -12.6559805  -51.076384 19.155644 -12.767972  -51.07638799999999 18.62354525 -13.30006675  -51.076392 18.0914465 -13.8321615  -50.287304 17.468625 -13.244071  -50.54425825 18.09179225 -14.36394975  -51.0764 17.027249 -14.896351  -50.287308 16.93652625 -13.77616575  -50.54426225 17.5596935 -14.8960445  -51.076396 17.55934775 -14.36425625  -49.2230325 18.00141525 -13.77555275  -49.47998674999999 18.6245825 -14.8954315  -53.204883 17.026356 -12.768761  -52.40366225 16.9342235 -11.66211425  -53.2048885 17.55839325 -12.236718  -52.67275825 17.558678 -12.76856375  -52.1406335 18.091 -12.7683665  -51.8715375 17.4665455 -11.661917  -52.67276375 18.09071525 -12.23652075  -53.204894 18.0904305 -11.704675  -55.333333 8.314617999999999 -11.439717  -54.66667575 8.44517375 -12.22174125  -54.66667575 8.991079750000001 -11.708099  -54.66667575 8.16231075 -11.544444  -54.0000185 8.0100035 -11.649171  -54.0000185 8.292866500000001 -12.32646825  -54.0000185 8.838772500000001 -11.812826  -54.0000185 9.6675415 -11.976481  -54.0000185 9.1216355 -12.49012325  -54.0000185 8.575729500000001 -13.0037655  -55.333333 8.597481 -12.11701425  -55.333333 8.880344000000001 -12.7943115  -54.66667575 8.728036750000001 -12.8990385  -54.66667575 9.27394275 -12.38539625  -55.333333 9.143387000000001 -11.603372  -55.333333 9.972156 -11.767027  -54.66667575 9.81984875 -11.871754  -55.333333 9.42625 -12.28066925  -55.333333 11.629694 -12.094337  -54.66667575 10.64861775 -12.035409  -55.333333 11.083788 -12.60797925  -55.333333 10.800925 -11.930682  -54.66667575 10.10271175 -12.54905125  -55.333333 10.255019 -12.44432425  -55.333333 10.537882 -13.1216215  -55.333333 9.446070000000001 -14.148906  -54.66667575 9.01089975 -13.57633575  -54.66667575 9.556805750000001 -13.0626935  -55.333333 9.163207 -13.47160875  -55.333333 9.991976000000001 -13.63526375  -55.333333 9.709113 -12.9579665  -52.666704 7.705389 -11.858625  -53.33336125 8.140559250000001 -12.43119525  -53.33336125 8.686465250000001 -11.917553  -53.33336125 7.85769625 -11.753898  -50.5442505 16.495564 -15.9601855  -50.28641875 15.896643 -14.81693825  -50.54425825 17.02761975 -15.428122  -50.0121165 17.0279905 -15.959893  -49.75426925 15.364958 -15.88077275  -50.01210875 16.49593475 -16.4919565  -49.754277 15.89701375 -15.34870925  -49.4964375 14.766037 -14.7375255  -50.012101 15.963879 -17.02402  -51.07639225 16.49519325 -15.4284145  -51.0763845 15.9631375 -15.960478  -50.54424275 15.96350825 -16.492249  -50.286411 15.36458725 -15.34900175  -51.076369 14.899026 -17.024605  -49.7542615 14.83290225 -16.41283625  -50.2863955 14.30047575 -16.41312875  -50.28640325 14.8325315 -15.88106525  -48.964288 14.234352 -15.80136  -48.96429575 14.76640775 -15.2692965  -49.49642975 14.23398125 -15.269589  -49.496422 13.7019255 -15.8016525  -48.432154 14.7667785 -15.8010675  -50.544235 15.4314525 -17.0243125  -49.2221275 15.36532875 -16.41254375  -51.07637675 15.43108175 -16.4925415  -48.947833 17.028732 -17.023435  -48.6899935 15.89775525 -16.41225125  -49.479967 16.4963055 -17.0237275  -49.22213525 15.8973845 -15.88048025  -49.47997475 17.02836125 -16.491664  -47.916475 12.504825 -14.5787  -48.17431449999999 13.63580175 -15.18988375  -48.70644849999999 13.10337525 -15.19017625  -48.70645625 13.635431 -14.65811275  -50 10.415406 -14.584594  -51.33333325 10.718978 -13.96202975  -50.66778 10.3123795 -13.43762025  -50 10.936286 -14.063714  -50 11.457166 -13.542834  -51.33333325 11.239858 -13.44114975  -50.66778 10.8332595 -12.91674025  -51.33556 10.209353 -12.2906465  -52.00111325 10.6159515 -12.815056  -52.66666650000001 11.02255 -13.3394655  -51.33333325 11.760738 -12.92026975  -51.33333325 12.281618 -12.39938975  -52.00111325 11.1368315 -12.294176  -52.00111325 11.6577115 -11.773296  -52.66666650000001 12.06431 -12.2977055  -52.66666650000001 11.54343 -12.8185855  -50.66778 11.3541395 -12.39586025  -51.33556 10.730233 -11.7697665  -50 11.978046 -13.021954  -53.99999975 11.326122 -12.71690125  -54.66777975000001 11.2230955 -11.5699275  -53.99999975 11.847002 -12.19602125  -53.33444650000001 10.9195235 -12.19249175  -53.33444650000001 11.4404035 -11.67161175  -54.00222650000001 10.816497 -11.045518  -52.66889325 10.512925 -11.66808225  -53.33667325 10.4098985 -10.5211085  -52.66889325 11.033805 -11.14720225  -52.00334 10.1063265 -11.14367275  -55.333333 12.769231 -14.897436  -55.333333 11.93844075 -14.7103035  -55.333333 12.48434675 -14.19666125  -53.99999975 11.8958905 -14.11845075  -53.99999975 11.06510025 -13.93131825  -53.99999975 11.61100625 -13.417676  -55.333333 12.1994625 -13.4958865  -55.333333 11.6535565 -14.00952875  -55.333333 11.1076505 -14.523171  -53.99999975 12.18077475 -14.8192255  -52.66666650000001 11.30743425 -14.04024025  -53.99999975 11.3499845 -14.632093  -52.66666650000001 11.5923185 -14.741015  -51.33333325 11.00386225 -14.6628045  -51.33333325 10.173072 -14.475672  -52.66666650000001 10.76152825 -14.5538825  -52.66666650000001 10.476644 -13.85310775  -52.66666650000001 9.930738000000002 -14.36675  -55.333333 11.36867225 -13.308754  -55.333333 10.82276625 -13.82239625  -53.99999975 10.780216 -13.2305435  -55.333333 11.91457825 -12.79511175  -55.333333 10.27686025 -14.3360385  -53.99999975 10.23431 -13.74418575  -53.99999975 10.51919425 -14.4449605  -53.99999975 9.688404000000002 -14.257828  -50 8.333907 -16.666093  -51.33333325 8.12386725 -16.55458  -50.666676 8.1767775 -15.464226  -51.33333325 8.611947750000001 -16.03679625  -52.66666650000001 8.889988500000001 -15.4074995  -52.00000925000001 7.96673775 -15.352713  -52.66666650000001 8.401908000000001 -15.92528325  -52.00000925000001 8.454818250000001 -14.83492925  -51.333352 8.019648 -14.262359  -52.66666650000001 7.9138275 -16.443067  -54.66667575 8.522819250000001 -14.0941195  -53.99999975 9.16802925 -14.77820275  -54.0000185 8.087649000000001 -13.52154925  -53.3333425 8.732859000000001 -14.2056325  -53.3333425 8.244778500000001 -14.72341625  -54.0000185 7.5995685 -14.039333  -55.333333 8.9579895 -14.66668975  -53.99999975 8.679948750000001 -15.2959865  -55.333333 8.469909000000001 -15.1844735  -54.66667575 8.034738750000001 -14.61190325  -55.333333 7.493748 -16.220041  -54.66667575 7.54665825 -15.129687  -55.333333 7.981828500000001 -15.70225725  -53.99999975 8.191868250000001 -15.81377025  -53.3333425 7.756698 -15.2412  -52.66668525 7.80960825 -14.150846  -53.99999975 7.70378775 -16.331554  -53.33336125 7.65247875 -12.948979  -52.66668525 8.297688750000001 -13.63306225  -52.000
[...]
<PointData  Vectors="u"> 
<DataArray  type="Float64"  Name="u"  NumberOfComponents="3" format="ascii">-2.6872375231980568e-03 1.7439632834180065e+02 -9.8199929005924488e+01  1.3821006132176319e-01 1.6452157552764584e+02 -8.5945569797450659e+01  6.0184056506796736e-02 1.6951552557242937e+02 -7.8151962907087324e+01  3.0055078422807293e+00 1.6810417586047615e+02 -8.0171690978761433e+01  5.9427010107272551e+00 1.6258091310818793e+02 -6.6177058619078949e+01  3.6208525920439127e+00 1.5907675879776284e+02 -7.0192502768583338e+01  2.9900765398678835e+00 1.6301236773378668e+02 -6.3285157403480270e+01  -1.7804502935092620e-01 1.6371974755007042e+02 -6.1175266653183165e+01  -2.0347093505166332e-02 1.5993709450677690e+02 -6.8213831375376273e+01  -2.0203179712119493e-01 1.5543411602993589e+02 -7.4881228940772857e+01  -7.4725022535903587e-02 1.7947758774984374e+02 -8.8490380256451090e+01  2.5339013053142052e+00 1.7234238235975133e+02 -7.2345901356811638e+01  5.6463039079466100e-02 1.7352450579457908e+02 -7.0262935985604130e+01  -1.4066365173483775e-01 1.8355427312930917e+02 -7.9905914021056375e+01  3.2945239994845368e+00 1.7815223586339431e+02 -9.1154272259855361e+01  5.0811074671333838e+00 1.7154297787717383e+02 -7.5219782587162697e+01  4.9662785607391333e+00 1.8094731004728101e+02 -8.5235559851195518e+01  2.3781973312084763e+00 1.8250498212022956e+02 -8.2231158537221518e+01  4.3018616823166953e+00 1.7535954700315807e+02 -6.6649680046603351e+01  2.1931263547881925e+00 1.7604593931285081e+02 -6.4016214902266341e+01  3.9991601070108467e+00 1.8517865867751647e+02 -7.6173926036528087e+01  2.0187477430788747e+00 1.8654405814787958e+02 -7.3637851190940950e+01  -5.6691024696543268e-01 1.3684225741963161e+02 -5.3548517721186379e+01  3.7283027875614894e-01 1.4678768434829880e+02 -6.4793300399367894e+01  -1.2709143039628636e-02 1.5092292147092959e+02 -5.9050316409384124e+01  4.3439829754480872e+00 1.4986062802517512e+02 -6.0595172081142671e+01  5.9453569495826049e+00 1.7447841181831464e+02 -6.9810333090822496e+01  6.1708024719221060e+00 1.8386739948431605e+02 -7.9545475911884637e+01  1.2009866348467391e+02 1.7476673272372852e+02 -1.7340081327501898e+02  1.1156254436423474e+01 1.5261101577243116e+02 -1.4250735290990886e+02  2.2180667102956829e+01 1.4460950696952605e+02 -1.4472453379183852e+02  4.7987289051931150e+01 1.2963120329662453e+02 -1.2100060830435595e+02  3.6396128523598350e+01 1.1760767020445412e+02 -9.8974380765055798e+01  2.9827687086919401e+01 1.3263231311019214e+02 -1.1228092973911869e+02  2.9586268333188933e+01 1.2853713862820675e+02 -1.1858752494821186e+02  2.0195672402623885e+01 1.3410316519133846e+02 -1.3405149138097244e+02  2.0115523720348953e+01 1.3925118560034585e+02 -1.2812028074690821e+02  2.0611480865847476e+01 1.4418889943148264e+02 -1.2192560905444115e+02  1.3052320119777713e+02 1.8648874602285360e+02 -1.7821259151514448e+02  1.1851578073868139e+02 1.7823764071239037e+02 -1.6049290413945462e+02  2.0845231917457504e+01 1.5450643269065927e+02 -1.3504636513446764e+02  4.7952224032604079e+01 1.3508016480435163e+02 -1.1710033420854568e+02  1.1128292079256725e+02 1.8829259587976102e+02 -1.5461678253492673e+02  1.4215987591347421e+01 1.5936722102247029e+02 -1.3035233522805319e+02  5.0108367234273487e+01 1.4157362552333032e+02 -1.0588780082399306e+02  4.6957832977999580e+01 1.3680045723140486e+02 -1.0957048651729215e+02  2.8925500317386806e+01 1.3663232637917747e+02 -1.0652927095146548e+02  3.5846174922489659e+01 1.2126730285485267e+02 -9.3183692799486494e+01  3.5066261813033748e+01 1.2502187763467485e+02 -8.7492734100158344e+01  1.3029932596485529e+02 1.9197513235508930e+02 -1.6820384370936361e+02  -4.2617797613626407e-01 1.1956393693069320e+02 -7.9767417053985341e+01  6.5508233319504470e+00 1.2784978257776174e+02 -9.5529433960553192e+01  1.7352864078424791e+01 1.1936927925545133e+02 -8.0600803860352144e+01  1.8928804510369723e+01 1.1534374746570165e+02 -8.6246124135526458e+01  1.9162306512763227e+01 1.2878910165123867e+02 -9.7453687665645077e+01  1.9596424469716165e+01 1.2468231240936413e+02 -1.0387777557653892e+02  1.0397749553901409e+01 1.3496853843412191e+02 -1.1134008001622824e+02  1.1856848894366005e+01 1.4163875750925862e+02 -1.4129212805562017e+02  1.1932934705102245e+01 1.3953344571405668e+02 -1.2649262716936694e+02  1.7619217130958390e+01 1.3691125539758033e+02 -1.1363875193437858e+02  1.8183597307439364e+01 1.3154028797486453e+02 -1.2026329223716182e+02  1.3943772177407080e+01 1.4016022027224747e+02 -1.2749404247465763e+02  1.4156741055270963e+01 1.3459115628089731e+02 -1.3455435163527704e+02  1.0824038244292410e+02 3.6053832787409796e+01 -7.1733108011064360e+01  1.0734994418163814e+02 3.2819950732917739e+01 -7.4182198011217523e+01  1.0507895297058916e+02 3.8182518657954148e+01 -7.8513597281951604e+01  1.0832012833253347e+02 3.5971645642658970e+01 -7.2552238589387372e+01  1.0732815793136022e+02 3.5103776152211253e+01 -7.1990801423750142e+01  1.0424029997487821e+02 3.3521769594978252e+01 -7.8800718100907645e+01  1.0607549024230660e+02 3.1987205613325823e+01 -7.3448990082132738e+01  1.0587910929936211e+02 3.6602496320487980e+01 -7.7316455822916282e+01  1.0635425250132758e+02 3.9893425609648041e+01 -8.4904258359868834e+01  1.0448546966003792e+02 2.9171937618279788e+01 -7.4886725481117679e+01  1.0670551352300321e+02 3.2958334503150965e+01 -7.4029635411048318e+01  1.0525681177145722e+02 2.9526551820087185e+01 -7.5591491220022306e+01  1.0548921052212465e+02 2.9657980951725726e+01 -7.5672052278100864e+01  1.0357364533899921e+02 3.5703953397347085e+01 -8.1171318508845474e+01  1.0414148610381176e+02 3.3286019909001226e+01 -7.0621253752501914e+01  1.0466475355873128e+02 3.1709082876008456e+01 -7.3067991015077737e+01  1.0493172560634366e+02 3.4820112751700385e+01 -7.5542984676235619e+01  1.0599652302601511e+02 3.4329811340497358e+01 -7.1537074161499973e+01  1.0962190524718143e+02 6.8214298068182842e+01 -4.1185116506067892e+01  1.0928927349720352e+02 7.1579215471845430e+01 -4.6212217085361488e+01  1.1062341481627681e+02 6.5971443276867163e+01 -4.4124167970471198e+01  1.0745458183920523e+02 7.4578879000772602e+01 -4.4889851967897485e+01  1.1101524662781407e+02 6.8253433085508206e+01 -4.2424283835690986e+01  1.1126815052194047e+02 6.3716456129828039e+01 -4.7235512862761894e+01  1.0997451498899427e+02 6.9499005384456694e+01 -4.9508293642237398e+01  1.1141914234704070e+02 7.7439747344789751e+01 -5.3635520250636212e+01  1.0815231082122433e+02 7.1857529933243285e+01 -3.6151896734998928e+01  1.0930721351403656e+02 6.9854753669890215e+01 -3.9605810203058937e+01  1.1025607939925827e+02 6.7307874733480290e+01 -4.2965874938082877e+01  1.0851651078041816e+02 7.3360515979173158e+01 -4.9196420505673942e+01  1.1154524939017298e+02 6.5803436152694559e+01 -4.5536498782470076e+01  1.1168671229912674e+02 6.1975306545010049e+01 -4.9586844992456072e+01  1.0904324352309463e+02 6.9843186348059291e+01 -5.1784997378481066e+01  1.1227799702751258e+02 6.3523471468743153e+01 -4.8754907422685392e+01  1.1118940317439048e+02 6.4750235059102522e+01 -4.6237314931213120e+01  1.0930022082326454e+02 6.8291463718376491e+01 -4.6822308312493206e+01  1.1005286511970878e+02 6.4171843245221154e+01 -4.5895121229706540e+01  9.3028682235184732e+01 6.0739678295800374e+01 -3.0856108722438101e+01  8.4295020558639223e+01 8.0673580974601549e+01 -4.4103355139678470e+01  9.2315661713749890e+01 6.4393802848289923e+01 -2.7310077270746866e+01  1.0082848679656723e+02 6.6523304638131094e+01 -3.4072989117787621e+01  1.0438844735509872e+02 6.8845848300688488e+01 -3.5369285538987370e+01  9.3177496626596181e+01 8.1769479430068017e+01 -4.3403937263468890e+01  9.9378734242028358e+01 6.8464165613773488e+01 -3.0115171026816203e+01  9.0769017985665059e+01 6.7121066699650768e+01 -2.3626040009374730e+01  8.3104263493826755e-02 1.1649983914968600e+02 -1.6279328987842993e+02  4.0833052123913882e+00 1.0434423400582681e+02 -1.5363509706656814e+02  4.4356616218466511e+00 1.1322485016673147e+02 -1.4904955249349743e+02  4.1382015304575237e+00 1.1465356548501764e+02 -1.6432213175741344e+02  7.2395290307058664e+00 1.1270044081548481e+02 -1.6537809036756965e+02  7.8031776402389497e+00 1.0322138975765196e+02 -1.5557378675895956e+02  8.2070400103534258e+00 1.1208232120616790e+02 -1.5120902395705264e+02  9.8797878065661937e+00 1.1003564463070921e+02 -1.3774016426206850e+02  9.6259534534620936e+00 1.0243516238370881e+02 -1.4249546284118068e+02  9.2067532419252256e+00 9.4611013772116138e+01 -1.4631832400879117e+02  8.3621828605462023e-02 1.0583908686443093e+02 -1.5216578799401213e+02  -2.7064309500220870e-02 9.5933497401435488e+01 -1.4230313451367530e+02  5.1066356206838028e+00 9.4910529231246073e+01 -1.4401189870454624e+02  5.2876284249986556e+00 1.0265140532580531e+02 -1.3996769139416119e+02  8.5448900943459652e-02 1.1477800415476979e+02 -1.4732269157692849e+02  -9.0979026644200198e-02 1.1103472980583632e+02 -1.3285109419898913e+02  5.4684344986069728e+00 1.1021466456566388e+02 -1.3510164259099966e+02  -6.4974610234720398e-02 1.0362175194667390e+02 -1.3786733998023959e+02  -3.9062388893193284e-01 9.8107867823942854e+01 -1.0300066051378417e+02  6.6920732742114017e+00 1.0548243680265288e+02 -1.2084130835128612e+02  -2.7262643525573582e-01 9.2946716662220908e+01 -1.0843297898769080e+02  2.5168064192904682e-01 1.0641612173008629e+02 -1.1888546311046298e+02  6.2955487229324323e+00 9.8936269988244774e+01 -1.2585050841102917e+02  3.1516381169723057e-01 9.9822933374270207e+01 -1.2410766695301152e+02  -5.8304554608914949e-01 8.6728783536349241e+01 -1.1313251418153284e+02  -4.4806609467942060e-01 7.4426504862623489e+01 -1.2118876112828484e+02  5.9779415808374150e+00 8.5132582849907308e+01 -1.3398405038112674e+02  6.4251392235212776e+00 9.2269269516508444e+01 -1.3052098418308614e+02  2.6438292876312880e-01 8.5972338240428826e+01 -1.3257821642547566e+02  -8.8394716702253889e-03 8.1145827660432701e+01 -1.1774119587264050e+02  1.6566819683502967e-01 9.3328272265804515e+01 -1.2874065266200910e+02  9.5705920060647447e+00 1.0961207401999867e+02 -1.6716284149563910e+02  9.8809524423536335e+00 1.0246285731395794e+02 -1.5724883675696353e+02  1.0779679899395147e+01 1.1130099612749356e+02 -1.5320068656556992e+02  9.8091522074190305e+00 1.1145211639268854e+02 -1.6677727002710552e+02  1.1321276900415000e+02 5.7894630419183336e+01 -5.4996069686342466e+01  1.0994534578647909e+02 6.4240801482742199e+01 -5.8033168740909723e+01  1.1244031477569006e+02 6.0744089960699270e+01 -5.2075040772251768e+01  1.1205389930946019e+02 5.8664247410416067e+01 -5.3108926120031633e+01  1.1121442643053756e+02 5.8751008983218924e+01 -6.1564245011519567e+01  1.1230941446112695e+02 5.5795340711518158e+01 -5.5845821203363343e+01  1.1137211276270079e+02 6.1561072837139378e+01 -5.8629498784152418e+01  1.1312859880828981e+02 6.6827993183570129e+01 -6.6681490889300065e+01  1.1207902098815687e+02 5.3056182000307956e+01 -5.8599895768581561e+01  1.1197713324865303e+02 5.9258615672854845e+01 -5.2958558547809361e+01  1.1205373883134016e+02 5.6035781997374848e+01 -5.6094384575839499e+01  1.1282961606099254e+02 5.4856929514338233e+01 -5.7851184279734170e+01  1.1022224811686824e+02 6.2445534035903620e+01 -6.2236894275296244e+01  1.1166128809131401e+02 4.9536589076620565e+01 -6.1902782948422306e+01  1.1085190035815934e+02 5.5714943377474839e+01 -6.4441993142636164e+01  1.0976771715094279e+02 5.5819794967046896e+01 -6.8090734445590073e+01  1.1001171173200977e+02 5.8222638645394326e+01 -6.4354681498053466e+01  1.1343597383643498e+02 5.8966255807015145e+01 -6.7529195541214918e+01  1.1354058803205096e+02 6.1868619554747944e+01 -6.4664148322996311e+01  1.1342072247306029e+02 6.3406880431577861e+01 -6.9495627567249628e+01  1.1270140001950932e+02 6.0628212595581253e+01 -7.2709517458982504e+01  1.1231806167934694e+02 5.7733729022323480e+01 -6.2985153221532393e+01  1.1261287519588659e+02 5.2043767727544115e+01 -6.0724447295696528e+01  1.1097303134206203e+02 5.6048581941088251e+01 -6.1466924553547550e+01  1.1208412637301173e+02 5.2879918263937341e+01 -5.9030787903274444e+01  1.0953903484964260e+02 5.4688154510707953e+01 -5.4673319425830798e+01  1.1013446957379391e+02 5.5813142820658129e+01 -5.8387375155777100e+01  1.1115998685486343e+02 5.4352076391424163e+01 -5.6924332597943426e+01  1.1085213475164628e+02 5.8454909944574268e+01 -5.8358557152395129e+01  1.1108835714477462e+02 5.6841970472699025e+01 -5.4267465767801170e+01  1.2863242765299310e+02 5.8520884253704594e+01 -7.0316182919151174e+01  1.1840518958087414e+02 5.9736336548198821e+01 -6.8009428569666824e+01  1.2132408715452134e+02 6.1933935875400017e+01 -7.3805393352378232e+01  1.2048896445022601e+02 6.5231119414271774e+01 -7.1264354177329068e+01  1.1860281713626262e+02 1.5341115416216465e+02 -1.8494015036182989e+02  4.9728611675982975e+01 1.0954458036647785e+02 -1.3785484728097327e+02  1.1119107542063968e+01 1.2928286071811462e+02 -1.5921813195592469e+02  1.2279346055056139e+02 1.7409262216537903e+02 -2.0054037126787500e+02  1.1880014979012910e+02 1.6579068033808568e+02 -1.8421481984701529e+02  5.1790458930340769e+01 1.1559031143764022e+02 -1.3499802822674206e+02  1.9316248862357249e+01 1.3361571665188637e+02 -1.5297424024346103e+02  2.0031924445959373e+01 1.2190157884986658e+02 -1.4413299812063141e+02  2.9321456323212779e+01 1.1093719505236339e+02 -1.3285474321939066e+02  3.6776324322427882e+01 9.6497341107448221e+01 -1.1798259952377818e+02  5.1001911947697536e+01 1.2084251994948858e+02 -1.3097775007205001e+02  5.1600193271806802e+01 1.2565288725825783e+02 -1.2690811459689765e+02  2.9813568135412698e+01 1.1713579710633483e+02 -1.2876067966435375e+02  2.9934676802497702e+01 1.2233912349903525e+02 -1.2343627817813740e+02  3.6994011993411618e+01 1.0716889809566884e+02 -1.0946421637764865e+02  3.6621498946279559e+01 1.0217347723484500e+02 -1.1411902134575210e+02  1.3099319822271282e+01 1.4222130279641638e+02 -1.5178187253087916e+02  1.9591857826825972e+01 1.2814378426401043e+02 -1.3929148315605445e+02  1.3260131812833947e+02 1.7341073357437196e+02 -1.8159543282292017e+02  1.9290710548512450e+01 9.4140446853499768e+01 -1.0770802069711434e+02  6.6969130848170524e+00 1.1041838558073383e+02 -1.1416583252904219e+02  1.8565105399773177e+01 9.9672714163265411e+01 -1.0310611092937781e+02  1.9860009398913842e+01 1.0709885586316007e+02 -1.2049718577465735e+02  2.0444962731582887e+01 1.1313360236553571e+02 -1.1558397103363701e+02  1.0644963672189023e+01 1.2198013409170193e+02 -1.2475202719048271e+02  1.8417915176302962e+01 1.1900022402886589e+02 -1.3203596521248213e+02  1.1897998922792384e+01 1.3220733541442931e+02 -1.3369708193296236e+02  1.8628004862778798e+01 1.2517559290005975e+02 -1.2652147646807359e+02  1.3883331851894569e+01 1.2781031015193679e+02 -1.4032425690942614e+02  1.7393170168687533e+01 1.5310961246907793e+01 -3.2869408726966931e+01  1.4469613703903261e+00 4.2247728749716842e+01 -6.4647250154820185e+01  1.5306143655631421e+00 4.4957919236750257e+01 -6.0365283526475771e+01  3.4044535826723063e+01 6.6006000505475697e+01 -8.5231573109854594e+01  2.5101602605037556e+01 7.4569707333895892e+01 -1.0062027659648801e+02  2.6334112118368477e+01 8.0467915128361241e+01 -9.6764286270846682e+01  9.7472706772267048e-01 6.6621698053704620e+01 -7.8451231445943350e+01  1.5353433248350481e+00 6.1659821632010740e+01 -8.2729005907159618e+01  1.0547451987342582e+00 5.6614928792628326e+01 -8.6920613534915560e+01  4.4625963754015423e+01 4.9581199162046836e+01 -7.1392417798083926e+01  4.8291386158394729e+01 8.4510517785101996e+01 -1.0826337185302940e+02  3.2524913701829995e+01 6.0900745619652781e+01 -8.8644947761180035e+01  5.8938715204973036e+01 7.2032785837682312e+01 -9.7460548568689049e+01  7.2756142297211994e+01 9.4854421992261521e+01 -1.2390891486647264e+02  4.9079051313184458e+01 1.0440784547864816e+02 -1.4203696073007026e+02  4.7503982297510213e+01 7.9542286023559498e+01 -1.1194056284539023e+02  3.6150036917084478e+01 9.0626250196369568e+01 -1.2205707987044377e+02  3.5164469911547449e+01 8.4988759628369579e+01 -1.2573391723835185e+02  1.1590230154685979e+00 7.9679657624588003e+01 -9.7959116541904336e+01  1.0581797851793879e+00 7.3590263160594134e+01 -1.0205948221291450e+02  1.8355221975220669e+01 8.8257673416236926e+01 -1.1238550015977235e+02  1.1598624213867956e+00 8.3825657486370787e+01 -9.2798390888304155e+01  5.8306960226327131e-01 6.8565012902857660e+01 -1.0589317740272065e+02  1.8546077745062068e+01 8.2460544444345985e+01 -1.1651467790405979e+02  2.4530538581174707e+01 6.9197138369046044e+01 -1.0496959531686468e+02  1.7457423916977632e+01 7.6879329124455595e+01 -1.2057522064965291e+02  1.0726801693337866e+02 1.2815174725885853e+02 -1.8829216643680959e+02  4.7127165176287782e+01 8.1008475787361505e+01 -1.4850276817881914e+02  1.5189851327931960e+01 1.0069360875528204e+02 -1.6489570197720309e+02  4.6452810679444440e+01 8.5279623639138038e+01 -1.4671534271894907e+02  3.4539266640786515e+01 7.2596619377254484e+01 -1.3018823786200912e+02  2.8588862308280689e+01 7.9179967386918619e+01 -1.4779267550482734e+02  3.3778801631387651e+01 6.6014373605442572e+01 -1.3070417719687546e+02  2.5869515203143159e+01 8.5276998275491962e+01 -1.4582594754348705e+02  1.7028356937807779e+01 9.3875643533662455e+01 -1.5730709275928865e+02  3.7138008204390204e+01 6.0188105830769246e+01 -1.3162465704332490e+02  6.1430400097357953e+00 7.7959757985080159e+01 -1.3633456243324738e+02  1.7978739049330997e+01 7.0431407443870199e+01 -1.2300322263729753e+02  8.9219123068041721e+00 8.6529262744431890e+01 -1.4856047252563621e+02  1.7781586327547274e+01 8.1589769941102389e+01 -1.3700110562325557e+02  1.7897358844927009e+01 7.4765160597546895e+01 -1.3871677927983757e+02  9.3688803802596219e+00 7.8937451936770771e+01 -1.5018911921745678e+02  -2.2615078213445389e-01 6.8142849661135884e+01 -1.2341424811063882e+02  1.7232419959803366e+01 6.3912941917762396e+01 -1.2464947548291150e+02  -4.8577490666428141e-01 6.1184043077231273e+01 -1.2488018194289803e+02  5.7466962214970518e+00 7.0675387951625197e+01 -1.3777104724825222e+02  1.4125615118956130e+00 4.8159204199880392e+01 -1.2624450211993917e+02  5.7107650454357604e+00 6.3825465363194823e+01 -1.3891055118334035e+02  -1.3990224595207054e-01 5.5492292614122519e+01 -1.2630890253115021e+02  1.7452026729882498e+01 5.7156648197809695e+01 -1.2561765056288279e+02  1.8534735048507670e+01 6.8218725443828362e+01 -1.3981611971709577e+02  1.5742477619226953e+01 8.4085735858579937e+01 -1.5202002112867916e+02  1.6223844984793725e+01 5.1896786587783112e+01 -1.2680740921697399e+02  9.7505439062601464e+00 9.3730922645914703e+01 -1.6002899681208370e+02  1.5790822934983286e+01 9.1409299281516596e+01 -1.4981192896537812e+02  1.1680493787350791e+01 9.8088779898905074e+01 -1.5945138499963679e+02  1.0974035974134205e+02 6.8085208196992241e+01 -5.5798029278749745e+01  1.0701591608744124e+02 7.0966867399609754e+01 -5.4620243470866271e+01  1.0475402395126027e+02 8.5177575954458732e+01 -6.4943889667876036e+01  1.1131187976283739e+02 7.8310230457887556e+01 -6.2596032518812891e+01  1.1059875676289894e+02 8.1476197654883450e+01 -5.8818619758309502e+01  1.1213521157976452e+02 7.4995248093631488e+01 -5.6978212074663595e+01  1.1291032230221248e+02 7.2985232493343545e+01 -6.0768021789365299e+01  1.1966513704711072e+02 9.4095594026713329e+01 -6.7562121649821691e+01  1.9093461367825373e+02 1.0559131251908612e+02 -8.3812899665416069e+01  2.0408950166883113e+02 1.0745180380540310e+02 -7.1414475725846742e+01  1.4354072577029621e+02 9.3864318175627574e+01 -6.0856786488879138e+01  1.2354927093962841e+02 8.5215890671254840e+01 -6.3438791459786543e+01  1.4371290021551414e+02 8.8458923228081190e+01 -6.0826197316177073e+01  1.4858741629070732e+02 8.6527200483219445e+01 -6.6939111429800050e+01  1.1923556535983728e+02 1.0739000982035878e+02 -8.0814718773179536e+01  1.2294464093880612e+02 9.7786158408951962e+01 -7.6330456808076406e+01  1.2897369045545346e+02 7.0334391673289517e+01 -5.8571115920684889e+01  1.2735267409996327e+02 7.2742126234760093e+01 -5.4979372117660546e+01