<?xml version="1.0"?>
<VTKFile type="UnstructuredGrid"  version="0.1"  >
<UnstructuredGrid>
<Piece  NumberOfPoints="5928" NumberOfCells="27362">
<Points>
<DataArray  type="Float64"  NumberOfComponents="3"  format="ascii">-55.333333 5.757605 -12.917043  -54.6656255 5.5857695 -12.98827875  -54.66667575 6.244551 -12.6524385  -54.66667575 6.67858675 -13.478188  -54.0000185 6.731497 -12.387834  -53.99896825 6.072715499999999 -12.72367425  -53.99896825 6.50675125 -13.54942375  -53.997918 5.413933999999999 -13.0595145  -52.662503 5.070263 -13.201986  -53.3302105 5.242098499999999 -13.13075025  -53.33126075 5.90088 -12.79491  -53.33126075 6.33491575 -13.6206595  -55.333333 6.384615 -21.282051  -53.99999975 5.58033075 -20.44700375  -55.333333 5.59784775 -21.0675955  -55.333333 6.13521225 -20.55878875  -55.333333 5.885809500000001 -19.8355265  -53.99999975 4.793563499999999 -20.23254825  -53.99999975 5.330928 -19.7237415  -55.333333 5.348445 -20.34433325  -55.333333 4.8110805 -20.85314  -52.66666650000001 4.7760465 -19.6119565  -53.99999975 5.8297335 -21.170266  -52.66666650000001 5.274852 -21.058481  -52.66666650000001 5.025449249999999 -20.33521875  -53.99999975 5.04296625 -20.9558105  -50 4.165089 -20.834911  -51.33333325 3.93320325 -20.7322405  -51.33333325 4.47056775 -20.22343375  -51.33333325 4.719970500000001 -20.946696  -52.66666650000001 4.488084750000001 -20.8440255  -52.66666650000001 4.238682 -20.12076325  -52.66666650000001 3.7013175 -20.62957  -55.333333 5.387004 -18.389002  -55.333333 4.8496395 -18.89780875  -53.99999975 5.08152525 -19.00047925  -55.333333 5.09904225 -19.621071  -55.333333 4.561677749999999 -20.12987775  -53.99999975 4.54416075 -19.509286  -55.333333 4.312275 -19.4066155  -55.333333 5.636406750000001 -19.11226425  -55.333333 3.237546 -20.424229  -55.333333 3.7749105 -19.91542225  -53.99999975 4.00679625 -20.01809275  -55.333333 4.024313250000001 -20.6386845  -53.99999975 3.46943175 -20.5268995  -53.99999975 4.256199000000001 -20.741355  -50 -1.455467 -20.215637  -51.29820925 -1.36223625 -19.82111675  -50.635768 -0.9819005000000001 -19.46912825  -50.6435895 -1.7233505 -19.68243725  -51.28717899999999 -1.991234 -19.1492375  -51.93397725 -0.88866975 -19.074608  -51.94179875 -1.63011975 -19.287917  -51.2793575 -1.249784 -18.9359285  -51.271536 -0.5083340000000001 -18.7226195  -52.5964185 -1.2690055 -19.4265965  -50.65461975 -1.09435275 -20.3543165  -51.3092395 -0.7332385 -20.492996  -51.952829 -1.001122 -19.95979625  -51.29038775 -0.6207862500000001 -19.60780775  -52.618479 -0.01101 -20.770355  -52.59962725 0.10144225 -19.88516675  -52.60744875 -0.64000775 -20.09847575  -51.9450075 -0.259672 -19.74648725  -51.92615575 -0.14721975 -18.861299  -52.588597 -0.5275555000000001 -19.2132875  -52.5807755 0.2138945 -18.9999785  -51.96385925 -0.37212425 -20.6316755  -52.574358 -2.527001 -18.082838  -52.5665365 -1.785551 -17.869529  -52.58538824999999 -1.89800325 -18.75471725  -51.92294699999999 -1.5176675 -18.40272875  -52.57756675 -1.15655325 -18.54140825  -51.9151255 -0.7762175 -18.18941975  -52.558715 -1.044101 -17.65622  -51.9307685 -2.2591175 -18.61603775  -52.543072 0.438799 -17.229602  -52.5508935 -0.302651 -17.442911  -52.56974525 -0.41510325 -18.32809925  -51.907304 -0.03476750000000003 -17.97611075  -52.56192375000001 0.32634675 -18.11479025  -51.081305 -6.381108 -25.537587  -50.2917525 -5.826786500000001 -24.881461  -50.81097875 -5.304693 -24.88432825  -50.81097875 -5.82769725 -24.361324  -50.5406525 -5.274286500000001 -23.185061  -50.02142625 -5.27337575 -23.705198  -50.5406525 -4.751282250000001 -23.70806525  -50.5406525 -4.228278 -24.2310695  -50.02142625 -4.7503715 -24.22820225  -49.5022 -5.272465 -24.225335  -50 -2.075448 -22.924552  -49.48077375 -2.5975415 -22.92168475  -50 -2.59845225 -22.40154775  -50.27032625 -3.67486725 -23.0548065  -49.7511 -4.196960750000001 -23.05193925  -50.27032625 -4.1978715 -22.53180225  -50 -3.1214565 -21.8785435  -49.48077375 -3.12054575 -22.3986805  -48.9615475 -3.119635 -22.9188175  -50.27032625 -3.151863000000001 -23.57781075  -49.7511 -3.6739565 -23.5749435  -47.923095 -4.163822 -22.913083  -48.44232125000001 -3.6417285 -22.91595025  -48.9615475 -3.64263925 -22.39581325  -49.23187375000001 -4.71905425 -23.049072  -49.23187375000001 -4.19605 -23.57207625  -48.7126475 -4.7181435 -23.569209  -53.206907 -4.254875 -25.538219  -53.10749300000001 -3.05295625 -25.138389  -53.7385135 -3.5503595 -24.82973125  -52.93678675 -3.00550275 -24.1763145  -52.66666650000001 -1.7561305 -22.81441  -52.83737275 -1.803584 -23.7764845  -53.46839325000001 -2.30098725 -23.46782675  -54.27012000000001 -2.845844 -24.1212435  -53.6390995 -2.34844075 -24.42990125  -53.008079 -1.8510375 -24.738559  -52.40518025 -3.71001825 -24.88480225  -51.6034535 -3.1651615 -24.2313855  -52.30576625 -2.5080995 -24.48497225  -52.13506 -2.460646 -23.52289775  -51.5040395 -1.96324275 -23.8315555  -50.70231275 -1.418386 -23.17813875  -51.33333325 -1.91578925 -22.869481  -52.20635225 -1.30618075 -24.08514225  -52.035646 -1.25872725 -23.12306775  -51.4046255 -0.7613240000000001 -23.4317255  -50.80172675 -2.62030475 -23.57796875  -55.333333 -1.436813 -22.704268  -54.70231250000001 -0.9394097499999999 -23.01292575  -54.170706 -1.64392525 -23.7214135  -53.99999975 -1.59647175 -22.759339  -53.5396855 -1.146522 -24.03007125  -53.36897925 -1.0990685 -23.06799675  -54.071292 -0.4420065 -23.3215835  -54.8017265 -2.1413285 -23.41275575  -52.809251 0.5528 -23.938899  -53.4402715 0.05539674999999999 -23.63024125  -52.908665 -0.6491187500000001 -24.338729  -52.73795875 -0.60166525 -23.3766545  -52.10693825 -0.1042620000000001 -23.68531225  -50 -0.5404075 -19.383056  -50 -1.233091 -19.44385925  -50.635768 -0.06684100000000004 -18.63654725  -50.635768 -0.7595245 -18.6973505  -50 -1.010715 -18.6720815  -50 -0.3180315 -18.61127825  -50 0.374652 -18.550475  -50 -0.7627835000000001 -20.15483375  -50.635768 -0.2892170000000001 -19.408325  -50 -0.07010000000000005 -20.0940305  -50 0.152276 -19.32225275  -50 1.315267 -19.972424  -50 0.8449595 -19.2614495  -50.635768 1.09615 -19.2867185  -50.635768 0.4034665 -19.34752175  -51.271536 0.1843494999999999 -18.66181625  -51.271536 0.877033 -18.601013  -50.635768 0.6258425 -18.575744  -50 0.6225835 -20.03322725  -50 -0.565963 -17.128526  -50.635768 -0.3147725 -17.153795  -50.635768 0.155535 -17.8647695  -50.635768 -0.5371485 -17.92557275  -51.271536 0.4067255 -17.8900385  -51.271536 -0.285958 -17.95084175  -51.271536 -0.063582 -17.179064  -50 -0.0956555 -17.8395005  -50 -0.788339 -17.90030375  -51.907304 0.1876085 -17.204333  -51.907304 0.6579159999999999 -17.9153075  -55.333333 -5.383485 -18.390837  -55.333333 -4.529608000000001 -18.07038275  -54.64358925000001 -4.504441 -17.64474475  -54.64358925000001 -4.669364 -18.31383725  -53.9538455 -3.955243 -18.2368375  -54.64358925000001 -3.650564 -17.3242905  -54.64358925000001 -3.815487 -17.993383  -53.9538455 -3.79032 -17.567745  -53.9538455 -3.625397 -16.8986525  -55.333333 -3.675731 -17.7499285  -55.333333 -5.218562 -17.7217445  -54.64358925000001 -4.339518 -16.97565225  -55.333333 -5.053639 -17.052652  -55.333333 -4.364685000000001 -17.40129025  -55.333333 -4.723793 -15.714467  -55.333333 -4.034839 -16.06310525  -55.333333 -4.199762 -16.73219775  -54.64358925000001 -4.174595 -16.30655975  -54.64358925000001 -3.485641 -16.655198  -55.333333 -3.510808 -17.080836  -55.333333 -3.345885 -16.4117435  -55.333333 -4.888716000000001 -16.3835595  -55.333333 -1.967977 -17.10902  -54.64358925000001 -2.107733 -17.3524745  -54.64358925000001 -2.796687 -17.00383625  -54.64358925000001 -2.96161 -17.67292875  -53.9538455 -3.101366 -17.91638325  -53.9538455 -2.936443 -17.24729075  -53.9538455 -2.247489 -17.595929  -55.333333 -2.656931 -16.76038175  -55.333333 -2.821854 -17.42947425  -53.26410174999999 -2.387245 -17.8393835  -53.26410174999999 -3.076199 -17.49074525  -53.26410174999999 -3.241122 -18.15983775  -53.204962 4.256687 -25.538351  -51.8716465 3.71086825 -25.41748525  -51.87161225 4.24299725 -24.88539025  -52.4037215 3.71082325 -24.88545525  -51.602481 3.1649595 -24.2325595  -51.070406 3.1650045 -24.7645895  -51.07037175 3.6971335 -24.2324945  -50.5382625 4.2293075 -24.2324295  -50.53829675 3.6971785 -24.7645245  -50.538331 3.1650495 -25.2966195  -52.67285275 4.788861000000001 -25.538286  -52.1407435 5.321035 -25.538221  -51.33953725 4.24304225 -25.41742025  -51.339503 4.77517125 -24.88532525  -52.672887 4.256732 -26.070381  -52.14077775 4.788906 -26.070316  -52.140812 4.256777 -26.602411  -51.3395715 3.71091325 -25.94951525  -50.807428 4.77521625 -25.41735525  -50.80739375 5.30734525 -24.88526025  -51.60863424999999 5.853209 -25.538156  -51.6086685 5.32108 -26.070251  -51.0765935 5.321125 -26.602281  -50.80746225 4.24308725 -25.94945025  -51.076662 4.256867 -27.666471  -50.8074965 3.71095825 -26.48154525  -51.07662775 4.788996 -27.134376  -51.60870275 4.788951 -26.602346  -51.608737 4.256822 -27.134441  -50 2.073232 -22.926768  -50.2691655 2.61914075 -24.11169375  -50.26913125 3.15126975 -23.57959875  -50.8012405 2.61909575 -23.57966375  -50.28844225 3.71285775 -26.99869975  -50.8074965 3.19265025 -26.99985325  -50.01927675 2.648641 -26.332082  -50.01927675 3.166949 -25.813774  -50.538331 2.6467415 -25.8149275  -50.538331 2.1284335 -26.3332355  -49.5002225 3.1688485 -26.3309285  -50 0 -25  -49.48094575 0.5202075 -24.9988465  -50 0.518308 -24.481692  -50.2691655 1.58252475 -25.14830975  -49.75011125 2.10273225 -25.14715625  -50.2691655 2.10083275 -24.63000175  -50 1.036616 -23.963384  -49.48094575 1.0385155 -24.4805385  -48.9618915 1.040415 -24.997693  -50.2691655 1.06421675 -25.66661775  -49.75011125 1.58442425 -25.66546425  -49.48094575 1.5568235 -23.9622305  -49.48094575 2.0751315 -23.4439225  -49.75011125 2.62104025 -24.62884825  -48.9618915 2.077031 -23.961077  -48.9618915 1.558723 -24.479385  -50 1.554924 -23.445076  -47.923783 2.08083 -24.995386  -48.44283725 1.5606225 -24.9965395  -48.44283725 2.0789305 -24.4782315  -49.231057 2.622
[...]
<PointData  Vectors="u"> 
<DataArray  type="Float64"  Name="u"  NumberOfComponents="3" format="ascii">-1.1521499319076976e-02 8.0276526911949887e+01 -1.8338469513772020e+02  2.6096016069204508e+00 7.8043421179942641e+01 -1.8448566834115829e+02  3.1708902578106990e+00 8.7829349644822443e+01 -1.8005753293945327e+02  3.0938478821723563e+00 8.0123393081681456e+01 -1.6561437031394203e+02  5.7846315918509825e+00 9.4398313119282534e+01 -1.7611831711539034e+02  5.2506592116464637e+00 8.5560326636115107e+01 -1.8058066481778351e+02  5.6937849504093867e+00 7.9129002830557198e+01 -1.6736106001322526e+02  4.2928519560675005e+00 7.6121939022181920e+01 -1.8499329899487438e+02  5.4322629915886180e+00 7.2617441063519010e+01 -1.8614777815528447e+02  5.3545613974669628e+00 7.4577020947040495e+01 -1.8582940999751136e+02  6.8041792810819297e+00 8.4244198627856719e+01 -1.8148828459331057e+02  7.5420809110780871e+00 7.8655044700576198e+01 -1.6928464245054252e+02  1.3549489697235602e+01 -2.7289995837174857e+01 -6.3864781223835699e+01  2.7705865071091456e+01 8.8482096165218529e+00 -1.0331326838619009e+02  1.1703050689299448e+00 -8.0922744112664500e+00 -8.5688038637277174e+01  1.2102618013739725e+00 -6.7774167749733785e+00 -8.5660132650096102e+01  1.1481754364931951e+00 7.2979424620023927e+00 -1.0119019878167128e+02  2.0557842793062868e+01 1.2399828236638779e+01 -1.1251651769037699e+02  2.1499649991297893e+01 1.7343906769267853e+01 -1.1410040330944531e+02  1.4381744136982082e+00 3.9082260236681576e+00 -1.0075118559381342e+02  7.0264752468091862e-01 7.1792027457546459e-01 -1.0001913741245858e+02  3.0102415601103740e+01 2.8222341667915686e+01 -1.2871818637926680e+02  3.5669125365913409e+01 -8.0712520919883401e-01 -9.1409648146555838e+01  4.7445763540084172e+01 1.6397193700366756e+01 -1.0932356608915909e+02  3.9098154915040979e+01 2.2765941748286902e+01 -1.1928001422040718e+02  2.6113332468971468e+01 5.4742836142333839e+00 -1.0209890096287270e+02  9.1665429477174328e+01 7.8393736395409917e+01 -1.7246828605250255e+02  4.0102676386841196e+01 3.6853203378519709e+01 -1.3834080534733550e+02  3.9626320461029017e+01 4.0442970052733422e+01 -1.3969666681582964e+02  5.7361654150854115e+01 3.3942076595199140e+01 -1.2783050931329660e+02  3.8112596887049435e+01 1.9076076166932690e+01 -1.1783133942874215e+02  2.9341587251722398e+01 2.3455573044534468e+01 -1.2705256985130882e+02  2.8246618808558264e+01 1.9818535918634375e+01 -1.2550034823729257e+02  -3.8796549091622851e-01 2.5195682117562889e+01 -1.2527858442120930e+02  -3.2735968525525944e-01 2.0680698471471519e+01 -1.2436673892303500e+02  1.6010905362807065e+01 2.3900455789121327e+01 -1.2459130283959033e+02  8.9463691649013299e-01 1.4302717818034765e+01 -1.1392358423196644e+02  6.4572604700930070e-01 9.9541804052651273e+00 -1.1275904204707859e+02  1.4949499011550996e+01 1.9176171780632782e+01 -1.2339292065248247e+02  -5.3397626316130931e-01 1.6133511371851231e+01 -1.2303538429997847e+02  9.5087268204721209e-01 1.7640917383431699e+01 -1.1456848215251890e+02  -1.2112371137190718e-01 8.5679646990620490e+00 -1.1943913467648206e+02  -2.4213686140888049e-01 1.2477541675527762e+01 -1.2163471152989342e+02  1.5256144584313036e+01 1.4815608232879990e+01 -1.2160066698290507e+02  4.1936367838357463e-01 7.1437378483013516e+00 -1.1135285342159554e+02  1.4217057952564630e+01 1.1891494838893996e+01 -1.2018006739184877e+02  1.9627368434092759e+01 8.9431991482064088e+00 -1.1167982976376034e+02  2.4222220270011910e-01 -1.7462332085352713e+01 -1.4562257800267366e+02  8.2455015992590788e+00 -1.3706758064200741e+01 -1.4448084193647799e+02  3.3668283858672132e+00 -1.0619079866980075e+01 -1.4801944359962019e+02  4.6753108958681660e+00 -1.9200487894303230e+01 -1.4772059763265702e+02  7.6865724000706317e+00 -1.9884883061855433e+01 -1.4873791895084346e+02  6.6841880978780814e+00 -7.9862758018016358e+00 -1.4764422477204445e+02  9.0603350558310041e+00 -1.4484342792788764e+01 -1.4561932942549464e+02  5.3653419731038463e+00 -1.2463937488050753e+01 -1.5021191736387925e+02  4.3087128026879560e+00 -5.0422566649274945e+00 -1.5179978187443888e+02  8.6439336236782935e+00 -9.9989724222254868e+00 -1.4276022298690225e+02  5.7483593457189643e+00 -1.2683334056629805e+01 -1.4345558278751821e+02  9.3309355279809161e+00 -7.5278271354772004e+00 -1.4021922689636997e+02  9.9646426489348521e+00 -8.8011843892726294e+00 -1.4125810749892054e+02  6.3898397091659103e+00 -6.2223135602332382e+00 -1.4565794108376136e+02  1.1838189596518028e+01 -8.9835578278935208e-02 -1.3279463326272437e+02  8.9846992310088005e+00 7.6772902493444450e-01 -1.3958644441509583e+02  1.0078343810904837e+01 -4.7941149592746370e+00 -1.3788750496992708e+02  8.0193044637427882e+00 -2.3282569611923147e+00 -1.4280522326090244e+02  5.6863362659840782e+00 -1.3383802458425589e+00 -1.4950446565277798e+02  7.1398995375240064e+00 -4.2678049024565619e+00 -1.4488039922929602e+02  6.3594134501081250e+00 1.7415945637110253e+00 -1.4691153065969493e+02  1.1737547624810897e+01 -3.2957438797176528e+00 -1.3651239204910269e+02  7.6369155389426560e+00 -2.2299662289963599e+01 -1.5201481390617784e+02  5.6856799000681244e+00 -1.6343895844958976e+01 -1.5532681132484444e+02  8.2098092224462036e+00 -1.5710887834420397e+01 -1.4744382945713113e+02  5.9591937159974790e+00 -1.4297014993666188e+01 -1.5259040078077498e+02  6.2256659254764086e+00 -9.9863737174981022e+00 -1.5026096300696386e+02  4.7352931702098191e+00 -7.4316118760761585e+00 -1.5491102386054916e+02  4.2784673887574085e+00 -9.8753150107780030e+00 -1.5834321512916981e+02  8.3966311084679894e+00 -2.0860649133225991e+01 -1.5016984121871451e+02  3.4185683518154106e+00 4.3024665754694089e+00 -1.6290343104846846e+02  3.7134634489388185e+00 -2.9749059434739831e+00 -1.6082976754204446e+02  5.1475272159863152e+00 -3.7063176746642421e+00 -1.5264562642328082e+02  4.0501502867207781e+00 -3.4408584402032488e-01 -1.5686854590815085e+02  4.7012746678809334e+00 2.9525085990483348e+00 -1.5454700299750041e+02  8.5617907482625327e+01 -4.2345372598169799e+00 -8.1246153617700230e+01  8.4825883717054509e+01 -8.4097067813347266e+00 -8.5123195801647583e+01  8.1085088372910093e+01 -5.8643565980838668e+00 -8.6317481313227034e+01  8.2827974684219996e+01 -7.7817797929762502e+00 -8.6594792139863173e+01  8.2090477968263471e+01 -1.4788872000517657e+01 -9.7017097260994987e+01  8.6074846319916048e+01 -1.3359068159874615e+01 -9.2732590526407080e+01  8.0477103736278011e+01 -1.2312891094048162e+01 -9.6083240654313329e+01  7.8480678955615119e+01 -9.9943162204874927e+00 -9.4550751316809510e+01  8.4108631358066546e+01 -1.0865681395349528e+01 -9.1203396239573237e+01  8.7226852013733875e+01 -1.1769120321420450e+01 -8.8393814573418609e+01  8.5600715498699046e+01 -5.3510781704643470e+01 -1.5591958952755505e+02  1.3153719817978222e+02 -1.9819923264636166e+01 -1.0939910133185617e+02  8.8436934769563095e+01 -6.9750143082663271e+01 -1.6965431000556640e+02  8.8829929513510749e+01 -1.8323086548646767e+01 -1.0840076961877664e+02  9.2487300047317547e+01 -1.7822425867774761e+01 -9.8375187238500217e+01  8.9253200118077885e+01 -2.3347748124151590e+01 -1.1289160992001926e+02  8.8314088385162506e+01 -6.3702304560735946e+01 -1.6272737895656795e+02  1.3568559619729257e+02 -1.5999667440796257e+01 -1.1198003056916964e+02  1.0530284166634931e+02 -1.1320530264508029e+01 -9.7218570058231890e+01  8.3402473424395595e+01 -1.7089963033766189e+01 -1.0881275382850009e+02  8.9380707569027365e+01 -1.6735425682340438e+01 -1.0347011275435344e+02  9.8460251670877142e+01 -1.1183042837491703e+01 -8.7108270537347678e+01  1.0045229750841236e+02 -1.0729645288766795e+01 -9.1316956749127755e+01  1.0893750691585205e+02 -1.0250632493993386e+01 -9.4166213275317176e+01  9.3654622505309959e+01 -1.3404141057406171e+01 -9.3159932059258736e+01  9.2002185795776285e+01 -1.3457833000843509e+01 -9.5208041258777556e+01  9.3371774442734818e+01 -1.3107243775497555e+01 -8.9969153639404979e+01  6.5532917172034473e+01 1.1433946440146924e+01 -7.6982124968832153e+01  5.2890655364508135e+01 7.8578605517256293e+00 -8.2706614093897386e+01  4.9156434674324139e+01 1.4118856929730990e+01 -7.7850317046146316e+01  4.7013178514161567e+01 2.5194192696810314e+00 -9.1889175375962921e+01  3.0621756155399378e+01 -5.9948525518982789e+00 -1.1302180092437564e+02  3.6562586335148410e+01 -1.6792334432737286e+00 -1.0184351049900923e+02  3.0147978316704872e+01 1.4194411599083361e+00 -9.8328138660262752e+01  2.7248222335264437e+01 1.2933092959813655e+01 -8.2510070860169137e+01  3.5582567678813156e+01 7.4733347122246183e+00 -8.7111753848313882e+01  4.2242508866686968e+01 2.7463791589419322e+00 -9.0778404932665609e+01  6.2254819951590669e+01 2.4734624127036193e+00 -8.7139292258971665e+01  6.2891211818104402e+01 -7.3133360114234058e+00 -9.9311874044895234e+01  5.2447601747170424e+01 -1.3242486662489421e+00 -9.5670298103827704e+01  4.7334809071244131e+01 -7.6384489491072367e+00 -1.0719577447032529e+02  5.2172171726856504e+01 -1.0772369797456379e+01 -1.1170069503570856e+02  3.2833745586169456e+01 -2.8377003961992539e+01 -1.4013406982032831e+02  3.8686527716003205e+01 -1.9069988282541296e+01 -1.2630745837192804e+02  4.2802409463483627e+01 -3.6229104134547745e+00 -1.0566788193263029e+02  3.3330500131917013e+01 -7.9144160106137855e+00 -1.1765669950457391e+02  3.7207770664197106e+01 -9.3001168429527450e+00 -1.2379865326799238e+02  6.8610974124844816e+01 -1.8163980561397143e+01 -1.1537986474066294e+02  -3.6436317598338808e-01 1.8159122856750978e+00 -1.0352322945748867e+02  7.8420242406592235e+00 1.2358109052396886e+00 -1.0285184712874775e+02  1.9395323809643212e+01 4.3578687277071824e+00 -9.4119033131876563e+01  1.6643208661151025e+01 -4.5836467764097066e-01 -1.0601864018439763e+02  2.7782679248518065e+01 1.8286456957530592e+00 -9.6262145136811696e+01  2.3187698978066521e+01 -1.2336919408676983e+00 -1.0745068587353445e+02  1.6010229692739699e+01 3.6044820728888061e-01 -1.0230040887013354e+02  9.5262353344774535e+00 6.7906982193527989e+00 -9.2633109693826285e+01  3.2725989735621191e+01 6.1552890750504452e-01 -1.0394876461331401e+02  2.4197491665382476e+01 1.1806531647285398e-01 -1.0261686576338215e+02  3.5850150961948742e+01 -2.6586019593596726e-02 -9.8198796503907644e+01  2.9223453683930032e+01 -1.6805585073633140e+00 -1.0980219052362168e+02  3.4472058577304011e+01 -2.8341060052285239e-01 -1.1289043747637265e+02  2.5699578585716870e-01 -5.8691998139631565e+00 -1.4868680374692258e+02  -6.8864806436387455e-02 -1.3602011190655373e+01 -1.4860003064427167e+02  2.1912989771456326e+00 -6.9477705344819318e-01 -1.5327446553466814e+02  2.4951428933827358e+00 -7.9458641198173625e+00 -1.5284624690245269e+02  -1.2298986889949712e-01 -1.0816418207910125e+01 -1.5337443087032131e+02  1.2083059330971152e-01 -3.3719730470785727e+00 -1.5372055017125263e+02  -9.3122653310770312e-02 4.0011494541770576e+00 -1.5418501752371611e+02  2.1524738876102226e-01 -8.9135959382849865e+00 -1.4466485852839094e+02  3.0827959780289933e+00 -3.0764351353244184e+00 -1.4811036239798710e+02  3.5252033656386655e-02 -8.2602043050093032e-01 -1.4477918735698904e+02  -2.9419815880952476e-02 1.6837792937824247e+00 -1.4895989612669337e+02  4.2607858446843316e-01 1.5371723373099101e+01 -1.4640059778382661e+02  1.2780876838074410e-02 9.1342815853331984e+00 -1.4941535685371866e+02  3.2176945178702008e+00 1.1750191545835444e+01 -1.4920255431956016e+02  2.9170399250388614e+00 4.2387747299847938e+00 -1.4850208589654952e+02  4.0126204477570608e+00 1.8551439188755376e+00 -1.5233066190241419e+02  4.3243762989755901e+00 8.7589000729285953e+00 -1.5267172576382222e+02  2.2483107139580971e+00 6.5797572588021884e+00 -1.5369483889311644e+02  2.9807504605242990e-02 7.1856694945247437e+00 -1.4514486629465642e+02  1.3512595298029655e-02 -6.2549695574424282e+00 -1.6573810861401330e+02  1.2806886624938576e+00 -3.4675249648357966e+00 -1.6535980462215747e+02  1.5440981370234061e+00 1.6551410209345010e+00 -1.5930040613827009e+02  1.7244084370822139e+00 -5.6948038578797666e+00 -1.5872839887634748e+02  3.0320093350946373e+00 4.1349567919421082e+00 -1.5841609956327289e+02  3.1135359263557518e+00 -2.9266483845715094e+00 -1.5793951707734445e+02  2.3443434081715449e+00 -6.5669837239650852e-01 -1.6481893876795212e+02  2.9064944392609617e-02 -1.0471299504564184e+00 -1.5959075007029620e+02  1.5884139769188977e-03 -8.4719583417342932e+00 -1.5900304240816195e+02  3.0760762430101836e+00 1.9285917830412060e+00 -1.6391684274744523e+02  4.1214315744791765e+00 6.4116700200266852e+00 -1.5730913452167212e+02  1.1573381594156476e-01 -2.5142174414979124e+01 -1.2514145764964428e+02  1.2162588986721026e-01 -2.7781271838663987e+01 -1.3676361400180397e+02  4.7166864053844506e+00 -3.1007974183741243e+01 -1.4192251757215857e+02  6.0074561522695751e+00 -2.6346373910147236e+01 -1.3328599142623739e+02  8.9177669633858478e+00 -2.6546886535734419e+01 -1.4067407137764874e+02  3.1273839704248885e+00 -2.8551964833076184e+01 -1.5024765156263894e+02  4.0148020340727131e+00 -2.5719338744888624e+01 -1.4253837735851229e+02  6.8343086695086299e+00 -2.9390128579954144e+01 -1.4825754750946186e+02  5.0978260713005961e+00 -3.1820388079068568e+01 -1.5589249244663327e+02  -1.7724714261381755e-01 -2.5932889814877303e+01 -1.4542197551696501e+02  5.2949357259970298e-01 -3.1628114390736467e+01 -1.3476346794795560e+02  3.4978151831825661e+00 -3.4617636777462764e+01 -1.4983147626679616e+02  6.2642347242936824e-02 -3.6528715296251796e+01 -1.4302291667851912e+02  -1.4895839966370939e-02 -3.1209936865373596e+01 -1.4466123578188439e+02  -3.9511483754316357e-01 -4.5351948921036261e+01 -1.6015026536165027e+02  3.2788505744360430e-02 -3.8237301231560515e+01 -1.6122029685865684e+02  2.7917103805516330e-01 -3.5050451916178083e+01 -1.5300827906757516e+02  2.8924948133992840e+00 -3.7977787465083743e+01 -1.5806589417988161e+02  2.2909245511692129e+00 -3.1065211491539429e+01 -1.5830023861450178e+02  8.3889597281725833e-02 -2.8658696754466249e+01 -1.5338415342087265e+02  -4.9112383134783354e-02 -3.0975317455793622e+01 -1.6143940212632052e+02  -2.1869447539796399e-01 -4.1176625842509750e+01 -1.5178935904551363e+02  -1.6539683590574783e-02 -1.7119476144695220e+01 -1.5940453013523583e+02  1.8872123533737790e+00 -1.7696529561987663e+01 -1.5660909981579960e+02  2.1472016731417809e+00 -2.4267141254017478e+01 -1.5787184279513326e+02  2.7521037507497850e+00 -2.2556299319226927e+01 -1.5016285913395282e+02  5.8781844719472112e+00 -2.3494408724992848e+01 -1.4811687635409129e+02  4.4352786562452025e+00 -2.4981961891866504e+01 -1.5536033177880483e+02  4.0058625791621152e+00 -1.8576718890756460e+01 -1.5431106721756308e+02  4.8565602778324952e-02 -2.3801886557419408e+01 -1.6073419612067065e+02  6.2896845914749949e-02 -2.2492068333140672e+01 -1.5296555938036849e+02  6.0923120400524517e+00 -2.0138352630104368e+01 -1.5284131749950285e+02  7.0256420181811157e+00 -2.6528776917852479e+01 -1.5392865538637989e+02  9.1374046844884553e+00 -2.4975028972319564e+01 -1.4680152349003293e+02  6.5674435010437080e+01 -1.1582544785430851e+01 -7.6907148344597502e+01  6.8308155871015003e+01 -6.1764087474048091e-01 -8.5805732191058439e+01  6.9581649815552538e+01 5.1038402238239600e-01 -8.7438314690660718e+01  6.2324591488099770e+01 -2.4316781181053928e+00 -8.7196905211776183e+01  6.2512896245752323e+01 7.1629994265691144e+00 -9.9266553878362117e+01  7.0520157550588337e+01 6.5666987515395610e+00 -9.5901418929467269e+01  7.1729291538681977e+01 9.0931836791639817e+00 -9.7437914629253541e+01  7.8302522781159524e+01 1.0005009231231554e+01 -9.4547921976634200e+01  7.7057692591753252e+01 7.9056704784424756e+00 -9.3380374677266701e+01  7.5322742235848082e+01 5.8839112917447638e+00 -9.1640591217653196e+01  7.2706965485819453e+01 -6.7988019393353323e+00 -7.9568768267611929e+01  7.7996164176220987e+01 -3.0403912825610946e+00 -8.0585488587523031e+01  7.4584574097090453e+01 1.8419386372630950e+00 -8.5833222453302426e+01  7.6105500169226758e+01 3.8719467755584405e+00 -8.7732479102805783e+01  7.1019691500522214e+01 -7.5527945505835952e+00 -7.8841004106589125e+01  7.6021743166750838e+01 -3.9765586172658289e+00 -8.0134268707952685e+01  7.4543195411562891e+01 -4.5485198692145392e+00 -7.9127511317095951e+01  7.3214936027845511e+01 8.3458395694108978e-01 -8.5049885618092958e+01  7.9324300433834608e+01 4.2278436170059850e+00 -8.5060359975046268e+01  8.1094373817756363e+01 5.9286303977266641e+00 -8.6304856458600597e+01  8.2431640071297892e+01 1.1155434674424649e+00 -8.1513325820770916e+01  8.0458716780942282e+01 -3.4390906192720549e-01 -8.1073154781906581e+01  8.1856379449292504e+01 1.4829402252443797e+00 -8.0181350032866675e+01  7.7933712316216656e+01 2.7116390802446300e+00 -8.4255655891024119e+01  7.8590582923236624e+01 -1.9838105619519039e-01 -7.8580110657057730e+01  7.6392721102515708e+01 1.6095172536841458e+00 -8.2871134836464464e+01  8.0253312969700843e+01 2.5336646483047481e-01 -7.9338951343118282e+01  7.9129201690682478e+01 -1.5348319131035395e+00 -7.9979304758912932e+01  7.7341084048759242e+01 -2.1204785933001471e+00 -7.9117940675183448e+01  8.8218691996949403e+01 5.4633791320381427e+01 -1.5678099002061279e+02  8.2534058303378984e+01 1.2828080890778685e+01 -1.0480383566942943e+02  8.3695139028534101e+01 1.6854712950835150e+01 -1.0865911272833360e+02  6.9493335202170869e+01 1.8729973182866143e+01 -1.1567424257404888e+02  7.8241592399274211e+01 2.5278851994074554e+00 -8.1569798869157310e+01  7.5196827744040334e+01 7.3058823779061965e-01 -8.1871764756597557e+01  7.7443635760404959e+01 3.4607099756801292e+00 -8.5796151083549077e+01  7.8670390692025379e+01 4.9277307029706883e+00 -8.7651805632624672e+01  7.4130219504087933e+01 3.9891403272503552e+00 -8.9977330129988147e+01  7.3287798594628867e+01 2.2879965162009528e+00 -8.7166917510334159e+01  7.9991196489501363e+01 4.5080105925742604e+00 -8.4209744313292845e+01  8.3558438369883731e+01 1.5046867842043476e-01 -1.2505168716895221e+02  1.0382019813039828e+02 8.4976329732224276e-01 -9.9797996409549981e+01  8.4573873034042933e+01 3.9452369232991614e+01 -1.5625641120280051e+02  7.8014108100938444e+01 6.5370941436548877e+00 -9.8370185492543058e+01  8.2452595249802144e+01 5.5299772511562164e+00 -9.3726940608066798e+01  8.0444378394266806e+01 9.0752650435914415e+00 -1.0260203965852905e+02  8.4098068789949281e+01 4.0288715860736467e+01 -1.4835364810954033e+02  1.0665532234655355e+02 9.9540947035875327e+00 -1.0770168752572626e+02  9.0681949111752459e+01 1.6966222940946118e+00 -9.2770332585019830e+01  7.5001084948455599e+01 5.0005110077510411e+00 -9.7266883009586195e+01  8.0699610626809431e+01 4.6615975486466041e+00 -9.3967281454776455e+01  1.2340270238921153e+02 9.1465762339678260e+00 -1.0243412136369514e+02  1.1679954201627903e+02 1.2997164202180677e+01 -1.0980311874713314e+02  8.4865929926155673e+01 1.0609465397625840e+01 -9.8968475172985308e+01  9.7793540816855540e+01 7.3893273438997920e+00 -9.5683547036374705e+01  9.6423641788570194e+01 4.5988515295710961e+00 -9.5085843165328086e+01  9.6362164010094958e+01 6.0643452117574675e+01 -1.6474567282878718e+02  8.8239946192572845e+01 3.9720904858505359e+00 -8.4227865548934560e+01  8.8652079803501238e+01 1.6913542195057616e+00 -8.6074660272019671e+01  9.1741672386268618e+01 4.0939562098100346e+00 -8.7901172700976161e+01  8.5388474256426164e+01 6.8570094661573622e+00 -9.0549439565964448e+01  8.2990880839261962e+01 4.8455836935134897e+00 -8.9172656330547014e+01  8.4178418269890585e+01 5.1059952356497735e+00 -8.5475164243610649e+01  2.7689232150456253e+00 7.1965441281699825e+01 -1.6958302006522925e+02  7.1184703674717538e+00 6.5336443339211584e+01 -1.5812571541868661e+02  4.9850994469928063e+00 7.0778031318325901e+01 -1.7094213375814877e+02  3.1148763890215137e-02 7.3667832537006518e+01 -1.6836589523478355e+02  -1.8374157387722665e-03 6.6962838229239324e+01 -1.5480694807155209e+02  3.7238230972852269e+00 6.6049441722915475e+01 -1.5646094181857370e+02  6.7169980375334761e+00 7.0042387756489148e+01 -1.7260984973122081e+02  7.2056949775566494e+01 -5.7762203908475831e+00 -6.6283190691632200e+01  