<?xml version="1.0"?>
<VTKFile type="UnstructuredGrid"  version="0.1"  >
<UnstructuredGrid>
<Piece  NumberOfPoints="6757" NumberOfCells="27769">
<Points>
<DataArray  type="Float64"  NumberOfComponents="3"  format="ascii">14.886338 42.587034 -25.526629  13.6762535 41.0749235 -24.2488235  12.6394455 42.12106350000001 -24.2394915  13.6790175 42.119272 -23.201711  12.471697 41.65151 -20.876793  12.468933 40.6071615 -21.9239055  11.432125 41.6533015 -21.9145735  10.392553 41.655093 -22.952354  11.429361 40.608953 -22.961686  12.466169 39.562813 -22.971018  13.675702 40.0118205 -25.3124775  12.637261 41.07768 -25.2850595  14.8857865 41.523931 -26.590283  14.885235 40.460828 -27.653937  12.6367095 40.014577 -26.3487135  10.388184 39.568326 -25.04349  11.4271765 39.5655695 -24.007254  14.88733 44.713056 -23.399614  14.7427275 42.120729 -22.1365435  13.6795135 43.182283 -22.1382035  15.950048 42.588491 -24.4614615  14.886834 43.65004500000001 -24.4631215  15.950544 43.651502 -23.397954  17.013758 42.589948 -23.396294  12.759102 42.584009 -27.656889  11.573643 41.0761675 -26.3501895  10.5349595 41.078506 -27.386534  10.53584 42.1217925 -26.3423675  8.312578 41.659576 -25.027846  9.350381 40.613951 -25.035668  8.311697500000001 40.6162895 -26.0720125  8.310817 39.573003 -27.116179  9.349500500000001 39.5706645 -26.0798345  10.632571 42.580247 -29.787182  9.471693999999999 41.076625 -28.4516805  9.4725745 42.1199115 -27.407514  11.6958365 42.582128 -28.7220355  11.5758275 42.119551 -25.3046215  10.3903685 40.6117095 -23.997922  9.352565500000001 41.6573345 -23.9901  13.8221685 41.5224185 -27.655413  13.82272 42.5855215 -26.591759  12.759744 44.710756 -25.5295  11.5761485 43.1829245 -24.240927  13.823041 43.648895 -25.5280645  12.759423 43.64738250000001 -26.5931945  15.9490785 40.462249 -26.5886725  8.4323485 42.121948 -28.445703  6.232126 41.663649 -27.104224  7.271471500000001 40.618326 -27.1102015  7.272352 41.6616125 -26.066035  10.633055 44.707355 -27.65959  9.4728165 43.1834655 -26.343718  11.6960785 43.645682 -27.6582395  10.632813 43.643801 -28.723386  10.536161 43.185166 -25.278673  11.6963995 44.70905550000001 -26.594545  12.463867 38.5191385 -24.0169945  12.6399415 43.1840745 -23.175984  13.823537 44.711906 -24.464557  11.573556 40.012359 -27.4140845  8.431938000000001 41.0791325 -29.4889295  6.2317155 40.6208335 -28.1474505  -18.211892 55.333333 5.848245  -16.2267815 52.63582649999999 4.7211725  -17.955205 53.963234 4.4635325  -18.4842615 52.66666650000001 6.045807  -16.4834685 54.0059255 6.105885000000001  -18.756631 50 6.243369  -18.2275745 51.29656749999999 4.6610945  -16.755838 51.339259 6.303447  -14.755045 52.678518 6.363525  -17.698518 52.593135 3.07882  -19.152595 53.208764 10.638641  -18.9756215 50.541972 9.4824065  -18.954613 51.604382 8.441005000000001  -17.912 51.604382 9.483618  -20.2162165 52.146354 10.6374295  -21.279838 51.083944 10.636218  -20.0182345 50.541972 8.4397935  -16.671405 50 8.328595  -17.714018 50 7.285982000000001  -10.638992 53.208628 19.15238  -10.553632 50.54225750000001 17.904111  -9.489697 50.54173400000001 18.968569  -9.490583000000001 51.604314 17.905103  -11.702041 52.1465715 19.151388  -11.701155 51.0839915 20.214854  -10.638106 52.146048 20.215846  -10.63722 51.083468 21.279312  -12.76509 51.084515 19.150396  -8.342174 50 16.657826  -19.153846 55.333333 8.512821000000001  -20.216879 53.20857700000001 9.574543500000001  -18.9552385 52.66666650000001 7.378095  -20.2175045 54.2708615 8.5116335  -19.1532205 54.27104850000001 9.575731000000001  -21.281163 53.20839 8.510446  -20.018897 51.604195 7.3769075  -12.763448 48.95928 21.277272  -12.66708 47.383779 18.949141  -11.6031165 47.3831665 20.0137165  -11.5948465 48.4354865 18.9696675  -13.8274115 48.9598925 20.2126965  -14.891375 48.960505 19.148121  -12.65881 48.436099 17.905092  -10.426245 47.911693 16.662063  -10.434515 46.85937300000001 17.706112  -10.442785 45.807053 18.750161  -13.270698 55.333333 7.206509  -12.5095415 54.01455350000001 6.416592  -12.837068 55.333333 5.862339  -11.8410135 55.333333 6.8298325  -10.411329 55.333333 6.453156  -11.079857 54.01455350000001 6.039915499999999  -11.4073835 55.333333 5.4856625  -12.403438 55.333333 4.518169  -12.0759115 54.01455350000001 5.072422  -11.748385 52.695774 5.626675  -8.336893999999999 55.333333 8.397462000000001  -8.716350500000001 53.9253955 7.442211500000001  -7.997202999999999 55.333333 6.965497000000001  -9.3741115 55.333333 7.425309  -8.376659500000001 53.9253955 6.0102465  -9.753568000000001 53.9253955 6.4700585  -9.0344205 55.333333 5.993344  -7.657512 55.333333 5.533532  -9.095807000000001 52.517458 6.486961  -10.6743735 54.01455350000001 4.680756  -11.0019 55.333333 4.126503  -10.0058455 55.333333 5.0939965  -9.600362000000001 55.333333 3.734837  -14.889442 46.835758 21.2748  -14.779221 44.204963 20.015816  -14.7802405 45.2672725 18.952487  -13.715863 45.267071 20.017066  -15.9528 45.77365 21.27355  -15.9538195 46.8359595 20.210221  -17.018197 46.836161 19.145642  -17.0171775 45.7738515 20.208971  -17.016158 44.711542 21.2723  -12.542284 43.698384 18.759332  -17.020012 48.960816 17.019172  -16.876267 46.3185375 15.805196  -16.8532085 47.380302 14.76649  -15.8128245 47.3806315 15.8065445  -18.0834545 47.898722 17.0178235  -19.146897 46.836628 17.016475  -17.916651 46.318208 14.7651415  -14.605637 45.800447 14.593917  -15.646021 45.8001175 13.5538625  -16.686405 45.799788 12.513808  -18.084411 48.960803 15.9547855  -19.14881 48.96079 14.890399  -17.9176075 47.380289 13.7021035  -19.1478535 47.898709 15.953437  -15.8052035 48.434721 14.7600755  -14.590395 47.908626 12.500979  -15.6384 46.854207 12.5073935  -14.598016 46.85453649999999 13.547448  -16.8696025 48.434708 13.695689  -9.025487999999999 55.333333 11.287899  -8.865771500000001 52.8692915 11.709413  -10.3917545 52.733856 11.6222945  -8.780079000000001 54.069589 10.3974875  -9.1111805 54.13303550000001 12.5998245  -10.306062 53.9341535 10.310369  -9.196873 52.932738 13.91175  -11.586636 52.534974 9.332839  -10.060653 52.6704095 9.419957499999999  -8.53467 52.805845 9.507076  -13.023262 50 4.581913  -13.307956 51.4381415 2.3668305  -13.7562525 51.4381415 3.788216  -14.0398965 50 3.4122625  -12.5749655 50 3.1605275  -15.056531 50 2.242612  -14.772887 51.4381415 2.6185655  -13.5916 50 1.990877  -12.126669 50 1.739142  -14.489243 52.876283 2.994519  -18.358468 50 4.7271975  -19.79746 50 5.202540000000001  -20.838289 50 4.161711  -19.2684035 51.29656749999999 3.6202655  -19.399297 50 3.6863685  -17.960305 50 3.211026  -17.8294115 51.29656749999999 3.144923  -23.406508 46.834262 12.75923  -22.1313515 44.205956 12.662693  -21.067082 45.26879 12.664129  -22.131948 45.268168 11.5998845  -23.4059115 45.77205 13.8220385  -22.341642 46.834884 13.8234745  -21.276776 46.835506 14.887719  -22.3410455 45.772672 14.886283  -23.405315 44.709838 14.884847  -20.857388 43.702074 10.440539  -11.5956675 49.498104 17.9062295  -10.5545255 49.499419 18.946056  -9.384209500000001 48.9558465 16.6599445  -8.3430675 48.9571615 17.699771  -8.343961 47.914323 18.741716  -9.385103000000001 47.913008 17.7018895  -18.655547 55.333333 3.5409705  -17.667296 55.333333 4.5592935  -19.200143 55.333333 4.829922  -20.188394 55.333333 3.811599  -18.943456 53.963234 3.4452095  -17.1227 55.333333 3.270342  -17.410609 53.963234 3.174581  -11.589773 50.54225750000001 16.86797  -9.378315000000001 50 15.621685  -10.414456 50 14.585544  -10.4203505 48.9558465 15.6238035  -10.163352 50 3.885035  -10.580062 51.3395965 2.403563  -11.0778825 51.567367 3.4525695  -9.5984035 51.3395965 3.4765095  -11.1450105 50 2.8120885  -12.059541 51.567367 2.379623  -9.033455 52.679193 3.067984  -10.512934 52.9069635 3.044044  -11.992413 53.134734 3.020104  -6.381581 48.953551 27.664868  -6.3473205 46.3238505 26.328829  -6.3475575 47.3874545 25.264988  -5.284017 47.3864235 26.329559  -7.444884500000001 47.890978 27.664138  -7.445121499999999 48.954582 26.600297  -8.508661999999999 48.955613 25.535726  -8.508424999999999 47.892009 26.599567  -8.508188000000001 46.828405 27.663408  -4.186453 45.819296 24.99425  -15.713225 51.339259 7.34606  -16.2818905 50 6.838581  -15.2501855 50 7.917247  -13.828966 50 7.505899  -15.3237105 51.339259 5.856046  -14.2920055 51.339259 6.934712  -14.860671 50 6.427233  -15.892376 50 5.348567  -12.012485 51.391632 0.893791  -10.465878 52.7312285 1.558212  -11.945357 52.95899900000001 1.534272  -11.898301 52.783264 0.04844  -18.9587165 47.3804195 12.6608635  -17.911334 48.431947 12.656718  -16.673858 47.903104 10.423037  -17.7212405 46.8515765 10.4271825  -16.6801315 46.851446 11.4684225  -17.727514 45.7999185 11.472568  -18.768623 45.800049 10.431328  -21.278346 48.959713 12.761941  -20.0234845 47.379881 11.5966345  -20.019958 48.432526 10.547516  -18.976102 48.4314085 11.592489  -18.7650965 46.852694 9.3822095  -17.717714 47.9042215 9.378064  -18.76157 47.905339 8.333091  -18.963336 45.265863 14.7708005  -17.924393 45.264067 15.81154  -17.73309 44.747443 12.519467  -16.694147 44.745647 13.5602065  -16.701889 43.691506 14.606605  -17.740832 43.693302 13.5658655  -18.779775 43.695098 12.525126  -20.213578 48.9602515 13.82617  -11.602422 46.3203235 21.0772545  -12.6661135 46.3214055 20.0124805  -13.8257505 46.834676 22.339574  -12.7627535 47.896437 22.34081  -13.826445 47.897519 21.276036  -12.762059 46.833594 23.404348  -13.118814 52.7860285 4.310597  -13.4463405 54.10480800000001 3.756344  -13.5792415 54.0059255 5.440847  -14.622144 52.7774005 4.679022  -13.251715 52.687146 5.9951  -13.8891535 51.339259 5.472719  -12.3858235 51.347887 5.104293999999999  -12.5078375 51.567367 3.8010085  -11.870399 52.915254 4.323389499999999  -13.240828 53.0055085 3.0073115  -12.1979255 54.2340335 3.7691365  -17.3245035 50 5.795968  -16.795447 51.29656749999999 4.2136935  -10.5615995 47.385161 21.0532395  -10.560905 46.322318 22.1167775  -8.359750999999999 45.811042 20.829207  -9.401268 45.80904750000001 19.789684  -25.535914 44.707713 12.756372  -23.174352 43.1
[...]
<PointData  Vectors="u"> 
<DataArray  type="Float64"  Name="u"  NumberOfComponents="3" format="ascii">5.0623060170018405e+01 -3.0808886964916145e+01 1.9817971944936772e+01  5.0746957952895301e+01 -3.0818174493360928e+01 1.9923175956992431e+01  4.9901912624452095e+01 -3.0493277451530378e+01 1.9392248327572258e+01  5.0418926210011072e+01 -3.1345291712553774e+01 1.9059498045412987e+01  5.0198855303426967e+01 -3.1904725709115567e+01 1.8299719205814096e+01  5.0535040033497005e+01 -3.1363513936430014e+01 1.9169360684225314e+01  4.9682321625029282e+01 -3.1039908585602532e+01 1.8639558097904221e+01  4.9172162411078553e+01 -3.0192772110315985e+01 1.8986379511708240e+01  5.0017992437932001e+01 -3.0513283624343561e+01 1.9503405781086197e+01  5.0862862593437221e+01 -3.0833074604983015e+01 2.0030884024031756e+01  5.1060878368849849e+01 -3.0272444359367288e+01 2.0785945809589126e+01  5.0227524630419467e+01 -2.9978876590382935e+01 2.0238830067987664e+01  5.0946892665633889e+01 -3.0267420584129979e+01 2.0679913884603302e+01  5.1238483447555446e+01 -2.9719549279769868e+01 2.1520439995435382e+01  5.0537193305619518e+01 -2.9455034434364276e+01 2.1075801399920493e+01  4.9836540498099879e+01 -2.9182183952407133e+01 2.0657390445563884e+01  5.0340202944559962e+01 -2.9994714048215194e+01 2.0344017380350280e+01  4.9922150669326200e+01 -3.1862982636524848e+01 1.8075745986346679e+01  5.0955166381283888e+01 -3.2232776152229647e+01 1.8709010193520839e+01  5.0075711466845682e+01 -3.1875233918652260e+01 1.8173396113836478e+01  5.1170353330506551e+01 -3.1690150400959212e+01 1.9478986652632283e+01  5.0285248464554620e+01 -3.1341119978295016e+01 1.8942934577887904e+01  5.0820687326400432e+01 -3.2225598359077317e+01 1.8592244287686842e+01  5.1715855664434294e+01 -3.2586890396228874e+01 1.9132235283860307e+01  4.9579150100546549e+01 -2.9109358115666243e+01 2.0477348004904339e+01  4.9714962391811376e+01 -2.9139187871386291e+01 2.0564157934327476e+01  4.9252857927664451e+01 -2.8345852806303263e+01 2.0878165476516582e+01  4.8915310990047594e+01 -2.8805096494624543e+01 2.0075794965933838e+01  4.8228488596232943e+01 -2.8520929159174731e+01 1.9723033127724506e+01  4.9035875141010550e+01 -2.8857345515928390e+01 2.0175426149841712e+01  4.8590227536773192e+01 -2.8057694131293850e+01 2.0520621238578279e+01  4.8939525390476618e+01 -2.7651577809106101e+01 2.1300656774249660e+01  4.9366227241444669e+01 -2.8394161387290481e+01 2.0967245373628991e+01  4.8631536693483895e+01 -2.7514153280061699e+01 2.1144475250267263e+01  4.8815592594241920e+01 -2.7560235255068697e+01 2.1205898800358892e+01  4.8461935049513983e+01 -2.7969163361208320e+01 2.0430200973080630e+01  4.9110849713505324e+01 -2.8297903874804959e+01 2.0807904520957941e+01  4.9385823987694252e+01 -2.9628927949021659e+01 1.9736323415653974e+01  4.9510298719810912e+01 -2.9673978580782592e+01 1.9832345048698436e+01  4.8681876842229649e+01 -2.9342015195424036e+01 1.9333965902376782e+01  5.0411657672298418e+01 -2.9424581692394575e+01 2.0986421257281663e+01  5.0097724410934212e+01 -2.9949757759651149e+01 2.0145719690055678e+01  4.8868452724971455e+01 -3.0103064177402935e+01 1.8784504227578442e+01  4.9037254219864586e+01 -3.0135989710005429e+01 1.8869807782841740e+01  4.9757573842977706e+01 -3.0465070539187149e+01 1.9290037265928003e+01  4.9242514450981844e+01 -2.9602326907007239e+01 1.9639745512222589e+01  5.1807131081178468e+01 -3.0571798603490858e+01 2.1234626292995181e+01  4.8105188918684746e+01 -2.7182954877003187e+01 2.0782257545279649e+01  4.7546263304785199e+01 -2.6982413539224890e+01 2.0611942471593913e+01  4.8218668071556806e+01 -2.7302622938742878e+01 2.0902202410027972e+01  4.7822890248619977e+01 -2.7699833167027453e+01 2.0103287374048705e+01  4.7863409482090205e+01 -2.8357803450022182e+01 1.9541508602274167e+01  4.8082611626926244e+01 -2.8412547170314639e+01 1.9605125056314556e+01  4.8753781394688268e+01 -2.8753658978545882e+01 1.9996048986337314e+01  4.8285009804212436e+01 -2.7922897431418132e+01 2.0365596683722476e+01  4.8550017689741914e+01 -2.9277037923598037e+01 1.9224444045548484e+01  4.8380761197776614e+01 -2.9229777484158536e+01 1.9143316360476749e+01  5.1166810788979667e+01 -3.0288853538915209e+01 2.0877622448356103e+01  4.9558119805138666e+01 -3.1009321991909736e+01 1.8516082840019731e+01  4.9406303683613096e+01 -3.0984884256750266e+01 1.8416305384800992e+01  5.0022129853416018e+01 -2.8640454152558700e+01 2.1371740070337143e+01  4.8468675473228984e+01 -2.6820000277309298e+01 2.1509813210481937e+01  4.7902072196991426e+01 -2.6581666003836126e+01 2.1274376905939267e+01  5.0032867823808310e+01 5.0368310748514888e-01 7.1122212689075575e+00  5.6742632809733237e+01 3.5378494505366196e+00 4.5849494476721475e-01  5.4223715630067417e+01 3.4772866117534207e+00 2.8305084977940602e+00  5.4845955380332278e+01 1.0655804757778162e+01 2.8245165570211515e+00  5.3911448359103325e+01 3.4317664425041849e+00 3.4910915169627494e+00  6.9020309101053130e+01 3.1401208792018526e+01 -1.0512133973087998e+01  6.0811870067896251e+01 3.5414321938667315e+00 -3.5324794234925925e+00  6.0439592217858994e+01 4.3197876343866071e+00 -2.7133347531112557e+00  5.6773120730343230e+01 3.4097362209831448e+00 7.7314365192412215e-01  5.6821084777839872e+01 3.3723738061224364e+00 -5.5623531930718187e-02  4.4042038879688704e+01 2.6875650453839267e+01 1.5220071927068846e+01  5.0822233254897114e+01 3.4190862164217698e+01 8.9316109602247202e+00  5.1163709935701618e+01 2.6489166407909810e+01 7.7158529417555046e+00  5.2316207186990852e+01 2.6175542160691325e+01 7.1222196119118868e+00  4.6674739281469492e+01 3.2142028261127692e+01 1.3517624067518772e+01  4.8209890011234478e+01 3.5557962844792961e+01 1.2180710636935206e+01  5.1796213636005497e+01 3.4151207314118700e+01 7.8900348829258622e+00  6.8596208067109274e+01 2.9313958443233645e+01 -9.4805874553747440e+00  7.2149227341635964e+01 3.0943476120996777e+01 -1.3152065644311897e+01  4.1314771390151378e+01 2.3509968288706567e+01 1.7163028292816534e+01  4.8643966312107786e+01 2.8905358400642015e+01 1.0738781691972552e+01  4.7547870094482505e+01 2.8962391866677383e+01 1.2042622917023534e+01  4.9303884212102020e+01 2.2458077060905804e+01 9.2436485559559785e+00  4.4278260094280178e+01 2.7522072407568821e+01 1.5679998440195119e+01  4.5534460338175023e+01 3.0144558835670409e+01 1.4762285492670051e+01  4.3346947347726797e+01 2.7165878777850704e+01 1.5225186716816010e+01  4.4595701311431235e+01 2.9112440636922287e+01 1.5330651349699197e+01  4.5778306259647600e+01 3.0576527049115455e+01 1.4950069588727334e+01  6.3777162864553702e+01 2.5806371872000575e+01 -5.6089704250490344e+00  3.7360487991675036e+01 6.8592212658818434e+00 2.0809889554563874e+01  4.3206024054579252e+01 2.8781552480837242e+01 1.5554998548467459e+01  5.1003419366039218e+01 1.7215491265289472e+01 7.2929936441637198e+00  3.9773343183654319e+01 2.0468053305694845e+01 1.8382265235880553e+01  3.9828168706884355e+01 2.0252633648989281e+01 1.8685794368781060e+01  4.3985941536854938e+01 2.7672505513095615e+01 1.4307379251201601e+01  5.2428343804492698e+01 2.6563242771405264e+01 6.1200302653656111e+00  4.7190100795844607e+01 3.1783613099550045e+01 1.5613942979944291e+01  4.8488800895702994e+01 3.2718064249111897e+01 1.4860178948682437e+01  4.8005900957369818e+01 3.2010369272303798e+01 1.5100584643682319e+01  4.8181291283845390e+01 3.2253601362493413e+01 1.3924380071709180e+01  4.7854304524179248e+01 3.2678647850734883e+01 1.5179937627172317e+01  4.8242870211319087e+01 3.3380009801563105e+01 1.5021188569875470e+01  4.8602770732984702e+01 3.2963562408210073e+01 1.3552107843224816e+01  4.9047351232726065e+01 3.5001258575148981e+01 1.2150346468460876e+01  4.7892230867489893e+01 3.3463851947835259e+01 1.4443003235465916e+01  4.8057951330014610e+01 3.2744279179413816e+01 1.5340434121561657e+01  5.4620414378734282e+01 -4.5164982934543851e-02 2.8000154143084846e+00  5.5508578191028221e+01 7.2684795509600475e-01 1.6570514376423364e+00  5.5539101867096399e+01 4.3894336829737805e-02 1.4993990500066583e+00  5.5418569685585901e+01 6.5356464803498951e-02 1.7137525199926169e+00  5.5459971257199157e+01 -2.3579360803180939e-02 1.2880046855075296e+00  5.5708303346916665e+01 4.2603729327307133e-01 1.1269435342642879e+00  5.5658038262317035e+01 -1.3710638002026966e-02 1.1258048138318713e+00  5.5769798556016546e+01 -2.6860413669326899e-02 9.8999969429148815e-01  5.5868967311128699e+01 4.4858872837688540e-01 9.4669302459896565e-01  5.6109224670256602e+01 6.3039885700911658e-01 7.7109826502596934e-01  5.5012802323265866e+01 -5.6340155838156346e-02 1.4836648816046569e+00  5.5305625011477055e+01 2.9831843177522727e-01 1.2100429778887449e+00  5.5239628954915233e+01 9.0201468357487989e-04 1.0314151300024674e+00  5.5251671622188070e+01 3.4660638994754987e-02 1.4068461632090448e+00  5.5440597511341259e+01 1.4083690809763716e-01 8.3381033816117756e-01  5.5551604602479969e+01 3.1525517397526281e-01 1.0586196278222191e+00  5.5471521153946085e+01 8.6915471863828146e-03 9.4880614796523310e-01  5.5364907212871863e+01 -5.0426843720302941e-03 7.2705246063458773e-01  5.5651709203364689e+01 2.9843396023237062e-01 8.4413497326465703e-01  5.5779500727686873e+01 2.0400870173501934e-01 7.6509515799153183e-01  5.5808720719876604e+01 1.8994028531810422e-02 7.0366936520160062e-01  5.5639487294576085e+01 2.1004550586099315e-02 8.3324564427814596e-01  5.5689408357537509e+01 -6.3461376901587947e-03 5.5148779589786467e-01  4.9164773650638367e+01 3.2832694494647320e+01 1.6397766257370264e+01  5.0281442390057691e+01 3.3268423416642634e+01 1.6940404921746286e+01  4.9941574801004450e+01 3.3715088296411452e+01 1.6056144776324594e+01  4.9447213430554186e+01 3.2889994544742791e+01 1.6404419013301112e+01  5.0094012596790776e+01 3.3240112825868366e+01 1.6839469301595177e+01  4.9710492216700715e+01 3.3704648788313875e+01 1.5996149269811761e+01  5.0139780992096902e+01 3.4525341855654041e+01 1.5678182962179315e+01  5.0580122627089729e+01 3.4113806647015728e+01 1.6458712283459860e+01  5.0965518703420948e+01 3.3631890138337290e+01 1.7348865379671569e+01  4.9578673017670390e+01 3.3036732081320011e+01 1.6564212075201969e+01  4.9096172071107695e+01 3.4891508590703488e+01 1.4376381049013904e+01  5.0528060603256904e+01 3.5742931258233348e+01 1.4369426624090073e+01  5.0218447997415481e+01 3.5804110275191121e+01 1.3463505978864420e+01  4.9932084404415697e+01 3.5171072615972882e+01 1.3794623416602638e+01  5.0199584810502465e+01 3.5672447905719743e+01 1.4458654683830865e+01  5.0982146460059980e+01 3.6204930267497190e+01 1.4848741296248541e+01  5.0897902791001997e+01 3.6534589180933558e+01 1.3943139607118406e+01  4.9948765567388072e+01 3.5934478987316496e+01 1.4027316791202932e+01  5.0325093401120107e+01 3.6551511769996658e+01 1.3655721224881255e+01  5.0651328813225192e+01 3.7458676662586072e+01 1.3200228535952526e+01  4.9607123074885187e+01 3.5814953092549608e+01 1.3849465025898859e+01  4.9799810312615456e+01 3.6416160781221443e+01 1.3534091512519002e+01  5.0622848114374243e+01 3.6692208175634185e+01 1.2959620575230375e+01  5.0522369393884958e+01 3.6463443170998062e+01 1.3990709183856806e+01  5.0018438453088507e+01 3.5253694365884456e+01 1.2684104380666920e+01  5.0842848654237550e+01 3.7721527796165496e+01 1.0918025031918017e+01  4.9939115537198305e+01 3.7240790046247866e+01 1.2811118482596509e+01  4.9686757906272305e+01 3.6541114239748254e+01 1.3204414110847839e+01  5.0279584495271457e+01 3.5898660194271052e+01 1.2226309970775620e+01  5.3594778268121729e+01 -9.6397861249584882e-02 3.3808045874187571e+00  5.4885450604886309e+01 2.3849213670373759e+00 2.2269330793588269e+00  5.4473173533208438e+01 3.9431547223588059e+00 3.0167511931369515e+00  5.4510408280458982e+01 7.6733944837348600e-01 2.3611987029385357e+00  5.3119321698539849e+01 1.9744511999704359e+00 4.2247105245918597e+00  5.4648729842357767e+01 1.8232377611744039e+00 2.7305161785882341e+00  5.3654914962154614e+01 6.1580166430069472e+00 3.7377302888752446e+00  5.6144128461863680e+01 3.0752316786452543e+00 1.4310341877475108e+00  5.5554937386549597e+01 1.4166700339330325e+00 1.5470797280690998e+00  5.5237742328582797e+01 7.6429452480305582e-01 1.4346542751291098e+00  5.6911960308755297e+01 6.0764014282415880e-02 2.1343317924448765e-02  5.6455675174353196e+01 2.9792812728661289e-01 1.4690432689425098e-01  5.6728466122196380e+01 6.4306829466689253e-01 1.3162426958568316e-01  5.6952682521164029e+01 5.1165299625755875e-02 -1.0111234156891211e-01  5.6456338229521151e+01 2.1082231770381533e-02 1.9248388824819804e-01  5.7079661252422092e+01 -8.3276442150265861e-02 -2.4928653256169639e-01  5.6812217187422270e+01 6.6547912050563940e-01 -5.5965170276273202e-03  5.6553315442961519e+01 4.8044294343910485e-02 4.4971819314726984e-02  5.6274869146174154e+01 -2.3217306799746529e-02 1.1556480659119801e-01  5.6386490993078468e+01 7.5142343354809615e-01 3.5501740536338372e-01  6.7260905516843735e+01 -6.8286383151649188e+00 -1.0532493381791284e+01  7.2224653214058037e+01 3.1416066138522041e+01 -1.4562177291098287e+01  6.9168346731968612e+01 3.0277880482378116e+01 -1.1778757055533873e+01  6.0364881941279613e+01 5.9849031782137079e+00 -3.2954476667134593e+00  6.5804319358360203e+01 -5.3037708292490371e-01 -7.6891475909066216e+00  5.9419041429526708e+01 7.6105375736360470e-01 -2.4739222482669931e+00  5.8218123462352111e+01 2.8535880681729635e+00 -1.2847111760731222e+00  5.2180266767192997e+01 3.9642698733799712e+01 1.2605290331997779e+01  5.3125649672366485e+01 3.9474479598844141e+01 1.3570907274073482e+01  5.2234089294664642e+01 3.8773439599606789e+01 1.3277842644603595e+01  5.2482337057522891e+01 3.9688467793594526e+01 1.2625381513417215e+01  5.2917020032056328e+01 3.9465317814796649e+01 1.3438075220500343e+01  5.2007609785130953e+01 3.8795103452757949e+01 1.3200703993197205e+01  5.1676491206229201e+01 3.7906999042248714e+01 1.3837352093180220e+01  5.2622990456657099e+01 3.8542924874788774e+01 1.4073110988764800e+01  5.3571017780251253e+01 3.9186130282935416e+01 1.4401715149051219e+01  5.2618676311128645e+01 3.9837952500552056e+01 1.2805847222746287e+01  4.9169644392924354e+01 3.1605693698205076e+01 1.1698144503016799e+01  4.7694431703254708e+01 3.0141537883385688e+01 1.3154515449813170e+01  5.0583022401468426e+01 4.1697089935293135e+01 9.8125731370928264e+00  4.8905032146876074e+01 4.2251409730390293e+01 9.4578898741066038e+00  4.7243589884987507e+01 3.3620956324491075e+01 1.3137716248392076e+01  4.7827918225526361e+01 3.3756209487733742e+01 1.2906767590339728e+01  5.3888081396219597e+01 -9.2346221013551152e-02 2.6278383423684044e+00  5.3730316318161321e+01 9.9242164857102411e-02 2.9444480950687555e+00  5.0580255792029682e+01 3.4562068625552084e-01 6.2242084411103296e+00  4.9448654779917923e+01 1.7967585117860513e-01 6.3327648639736296e+00  5.3898630169568932e+01 3.3957604946063751e+00 2.5290999460622103e+00  5.4908832981269825e+01 -9.8481435694211181e-02 1.6631878905290294e+00  5.5398991696040319e+01 1.8257387604783293e+00 1.2569431307580679e+00  4.8685050805322149e+01 2.9860617326795914e+01 1.1675342135262570e+01  6.8238741942418486e+01 3.3546281465417238e+01 -9.6438640029381375e+00  6.5424830985938286e+01 2.8087105155285911e+01 -6.2859206323390344e+00  5.0710458685126589e+01 4.0435974472374376e+01 8.5633919922998221e+00  5.5993209249422108e+01 2.0430402796789344e-03 3.8127859963770705e-01  5.6000434495794998e+01 9.1740856056840583e-02 2.4839171409124150e-01  5.6079182861814253e+01 1.7060612880874934e-01 3.6377125560585355e-01  5.5850857047658302e+01 9.0140935620328877e-02 3.7958548785269419e-01  5.6138829943364570e+01 7.3714618192732258e-03 2.4684721123869796e-01  5.6213807908313548e+01 1.8433732350040549e-01 2.3109894873544642e-01  5.5724300324456493e+01 7.5800064520958124e-02 3.6764754033256936e-01  5.5908000221009452e+01 1.5064703934268034e-01 3.9138715672278124e-01  5.6072656875412790e+01 2.6122267499643559e-01 4.2001119238568230e-01  4.2833542463051941e+01 2.5429936525663528e+01 1.7647854570764398e+01  4.5677540776404356e+01 2.6728042280870660e+01 1.8047966163607303e+01  4.5138662230432111e+01 2.6986524887302679e+01 1.6895759785229540e+01  4.4891772008923731e+01 2.5657554249774030e+01 1.7268945243447838e+01  4.4844416977142025e+01 2.6615061743383098e+01 1.8137591330669789e+01  4.4103993073378433e+01 2.6899298802076537e+01 1.7259064046481612e+01  4.4648333208885411e+01 2.7971027963052276e+01 1.6864894294562511e+01  4.5395915259866399e+01 2.7706418079630556e+01 1.7651038607971163e+01  4.5860737243027693e+01 2.7317093892808881e+01 1.8664177126571378e+01  4.5266720412505251e+01 2.7073245807103827e+01 1.8172851483022914e+01  6.0297257377405202e+01 6.2966627268949908e+00 -2.2230671991176369e+00  6.7272394388342178e+01 -5.6943254326316879e+00 -9.8320588046800594e+00  6.6248840656354687e+01 -8.8196452520004720e-01 -6.8265198854953306e+00  5.9306806612229238e+01 1.2081438770468391e+00 -1.5637312460170627e+00  5.8532927858033773e+01 2.8378505164451782e+00 -8.0065798284826128e-01  5.8024800668391158e+01 3.0342936032049197e+00 -5.5542765453242315e-01  5.9521561673714196e+01 1.3975845924292618e-01 -1.7309792104426416e+00  5.9486719420727589e+01 1.4149187610771181e+00 -1.9765934801539549e+00  5.6175258368360424e+01 1.1592961370066932e-01 8.1363656207614807e-02  5.5918944491126155e+01 9.4594751869802526e-02 1.8899920416919885e-01  5.6082496191354359e+01 1.7214289695771393e-01 1.9629135161401662e-01  5.6084793911790989e+01 1.3211887589357374e-01 1.0130335334348565e-02  5.0819091116763275e+01 3.7292026209569087e+01 1.2554252529681172e+01  5.0635144702910459e+01 3.6542870139977573e+01 1.1875145365308393e+01  5.1402011064882018e+01 3.9383214330073287e+01 1.0096247338634685e+01  5.0528675998669705e+01 3.8612311739178331e+01 1.1818612512277976e+01  5.0339492326102430e+01 3.8013900940653997e+01 1.2370301933837851e+01  5.0923269590289067e+01 3.8085777147791759e+01 1.2743723419209292e+01  5.1157188290363266e+01 3.8987888134107394e+01 1.2181110635987206e+01  5.0271805926178203e+01 3.7916917753432386e+01 1.2529361615228881e+01  5.1124788946213151e+01 3.8165414353968266e+01 1.1933500794946353e+01  5.1060536508573016e+01 3.8027186378368313e+01 1.0840305483591273e+01  5.0764567714825787e+01 3.7352133625038348e+01 1.1293789224590014e+01  5.0685489199283062e+01 3.9448494813398860e+01 1.1383851589598905e+01  5.0924680954523836e+01 3.9406633073578028e+01 1.0430436227174717e+01  5.1720814088887487e+01 4.0361026653131688e+01 9.1384560801642216e+00  5.1620343481787387e+01 3.7057405466328426e+01 1.4384194284049137e+01  5.1264886069934832e+01 3.6252041174315018e+01 1.4848993660469169e+01  5.1268397978556521e+01 3.7560070143564104e+01 1.3665595443669851e+01  5.0965031420045356e+01 3.6771368936591479e+01 1.4159128068838941e+01  5.1381724620732953e+01 3.6390942260125286e+01 1.5017659846221372e+01  5.1763794952098188e+01 3.7198586118273759e+01 1.4545543918744569e+01  5.2086986250962411e+01 3.8092104443254144e+01 1.4020178461041549e+01  5.0197197124162173e+01 3.7269712516147180e+01 1.2940109774092223e+01  4.8146917644755909e+01 3.1620306865818030e+01 1.6129469287645325e+01  4.8681642551586435e+01 3.2482362573772193e+01 1.5799532633965057e+01  4.8687528990744617e+01 3.1988348208594314e+01 1.6685133300460869e+01  4.7754548471621156e+01 3.1555280002551463e+01 1.6169714625628913e+01  4.8347552535971424e+01 3.2400545286270336e+01 1.5878795028612576e+01  4.8099134692835968e+01 3.1090699525270438e+01 1.7076380836220110e+01  5.6238543735908664e+01 7.1176502848026468e-01 6.1364131695001456e-01  5.6056034691186568e+01 4.9357595172251967e-01 7.0752747703923735e-01  5.5719710027594495e+01 9.0910730165660569e-01 1.3763734913097010e+00  5.6375281519398719e+01 1.4340857486423211e+00 7.4879999156501720e-01  5.6224088490318699e+01 1.3673526500176221e+00 9.3778524377875416e-01  5.7236031842135247e+01 1.1047539822742352e+00 -1.6195368711384724e-02  5.6536389827201702e+01 5.7681841355796637e-01 3.9676487038524683e-01  5.6426061842940932e+01 3.7476787311976129e-01 2.7576881718364810e-01  5.6069767227662517e+01 4.1546985354682148e-01 6.217