<?xml version="1.0"?>
<VTKFile type="UnstructuredGrid"  version="0.1"  >
<UnstructuredGrid>
<Piece  NumberOfPoints="6542" NumberOfCells="26881">
<Points>
<DataArray  type="Float64"  NumberOfComponents="3"  format="ascii">-36.184742 40.443606 6.371652  -33.697859 38.9618375 6.3403035  -34.76184 38.960447 5.277713  -33.7212745 40.0013585 5.277367  -35.120761 40.4449965 7.4342425  -34.05678 40.446387 8.496833000000001  -32.6572935 40.002749 6.339957500000001  -31.257807 39.559111 4.183082  -32.2983725 38.5181995 4.183427999999999  -33.338938 37.477288 4.183774  -29.796041 44.702569 8.501390000000001  -28.4468235 43.16604049999999 7.387136  -29.48595 43.1735345 6.3405155  -28.4450745 44.216838 6.3380875  -27.094108 43.731107 4.174785  -27.095857 42.6803095 5.2238335  -28.1349835 42.6878035 4.177213  -29.175859 41.6445 4.179641  -28.1367325 41.637006 5.2262615  -27.097606 41.629512 6.272882  -25.536674 46.832073 10.631253  -25.30125 44.2071445 9.491606000000001  -26.601114 44.706503 11.692383  -26.601494 45.768683 10.6298235  -27.666314 44.705293 10.628394  -25.019235 41.618303 8.362462000000001  -23.981312 41.6120275 9.406660500000001  -22.9397875 42.657374 9.4028385  -25.2775745 43.163008 10.559417  -23.9777105 42.6636495 8.358640000000001  -34.059126 38.320595 10.620279  -31.591264 36.8461415 10.562595  -32.6570045 35.781125 10.56187  -32.656203 36.8447165 9.4990805  -32.99498850000001 37.2584285 12.746583  -32.994187 38.32201999999999 11.6837935  -34.0599275 37.2570035 11.6830685  -34.060729 36.193412 12.745858  -31.929248 38.323445 12.747308  -31.25328 35.368838 8.377882  -27.666297 42.580263 12.75344  -27.411165 39.9836605 11.6051745  -26.3454995 41.0475195 11.606981  -27.3830835 41.05508 10.5618365  -28.7319625 41.516404 12.7516335  -29.797628 40.452545 12.749827  -28.448749 39.991221 10.56003  -27.09987 39.529897 8.370233000000001  -26.062286 39.52233649999999 9.4153775  -25.024702 39.514776 10.460522  -31.926435 42.574822 8.498744  -29.487243 41.06132599999999 8.451430500000001  -30.5526605 39.9971275 8.4502115  -30.552058 41.059954 7.387988  -30.8622225 41.5133675 10.62441  -30.86162 42.576194 9.562186499999999  -31.9270375 41.5119955 9.5609675  -31.92764 40.449169 10.623191  -29.796805 42.577566 10.625629  -29.177681 39.545086 6.277232  -34.054731 42.571958 6.373311  -31.592121 41.0669665 6.340913  -32.65626899999999 41.0655345 5.2781965  -32.9916075 41.5106045 8.4977885  -32.990583 42.57339 7.4360275  -34.0557555 41.50917250000001 7.435072  -29.5120205 42.10216699999999 7.385813000000001  -28.4472055 42.103539 8.4492555  -28.1376435 40.587299 6.275057  -28.4483375 41.0537315 9.497931000000001  -27.40802 42.09793449999999 9.4940455  -27.098738 40.5797045 7.321557500000001  -26.0584205 41.6239075 7.317672  -26.0595525 40.5741 8.3663475  -30.551147 42.109661 6.3391925  -29.17677 40.594793 5.2284365  -26.342766 42.099283 10.557951  -26.3427745 43.161798 9.495428  -27.6663055 43.642778 11.690917  -28.731551 42.5789145 11.6895345  -28.7315595 43.6414295 10.6270115  -31.6172305 39.9957365 7.3870325  -32.99221 40.447778 9.560012  -35.1197365 41.50778200000001 6.3724815  -31.5922165 38.9553755 8.452408  -32.6567865 38.9539845 7.389229  -31.256793 37.461582 6.281625  -30.217237 38.503334 6.2794285  -27.666328 46.830003 8.503669  -26.3377335 46.32561099999999 6.3366555  -25.2969365 46.3226245 7.380439  -25.273184 47.389033 6.337783  -26.6017785 47.893425 8.504796500000001  -25.009139 45.821219 4.169642  -31.6181185 37.8832515 9.49863  -32.6579595 37.8910885 8.450952000000001  -30.216952 37.453745 7.329303  -31.2550365 36.41521 7.3297535  -30.2151955 36.407373 8.3774315  -29.177111 37.445908 8.376981000000001  -27.38196 43.16740249999999 8.450638  -27.4051525 44.211252 7.3835955  -28.7311775 44.703931 9.564892  -26.340289 44.212614 8.4470975  -25.014264 43.719935 6.265801  -26.055935 42.6747235 6.269341499999999  -25.535914 44.707713 12.756372  -25.304843 42.0930075 11.6021495  -26.6006175 42.5818975 13.8174855  -26.6011055 43.643988 12.754906  -29.4873695 38.9492265 10.563404  -30.5531795 37.8846765 10.5621445  -30.5523755 38.9475385 9.500086  -30.863438 39.387995 12.7485675  -30.862634 40.450857 11.686509  -31.928444 39.386307 11.6852495  -36.189788 36.190797 10.619415  -33.69705949999999 36.850524 8.4524165  -33.721534 35.7798175 9.4986485  -34.7623905 35.785625 8.4519845  -35.124457 37.255696 10.619847  -33.334993 35.380453 6.284554  -32.2941365 35.3746455 7.331218  -36.186966 38.317347 8.495687  -34.7609795 36.8489 7.3901205  -35.123046 38.318971 9.557983  -36.188377 37.254072 9.557551  -32.295893 36.4210175 6.2830895  -25.0167495 42.66911899999999 7.3141315  -26.340296 45.274969 7.384735  -27.380218 45.280555 6.339227  -25.0117015 44.770577 5.2177215  -26.0516235 44.776163 4.1722135  -26.054186 43.725521 5.220293  -25.0219685 40.5665395 9.411491999999999  -34.762952 37.8973175 6.3397305  -36.185854 39.3804765 7.433669500000001  -35.121873 39.381867 8.496259999999999  -30.216833 40.6018055 4.1813615  -30.217744 39.5520985 5.230157  -31.2573 38.5103465 5.2323535  -33.7218795 37.8894645 7.388656  -26.3454185 39.98511999999999 12.6694615  -25.27982 41.049154 12.6710265  -27.666216 41.5178635 13.8159205  -25.534938 42.583532 14.881531  -26.6005365 41.519498 14.879966  -27.666135 40.455464 14.878401  -28.7318815 40.4540045 13.814114  -31.925023 44.700084 6.374892  -30.550441 43.172292 5.2772665  -29.5095655 44.2155955 5.2748385  -30.860532 44.70132649999999 7.438141  -27.666321 45.76764799999999 9.566031500000001  -28.7311845 45.76628599999999 8.502529500000001  -32.993383 39.384882 10.621735  -32.2978655 37.469435 5.2326995  -26.601501 46.831038 9.567461  -35.1252585 36.1921045 11.6826365  -25.275469 45.276004 8.448526999999999  -33.3369655 36.4288705 5.234164  -28.1387755 39.5374915 7.3237325  -27.666398 48.955028 6.378574  -26.3377685 47.3881235 5.274108  -27.666363 47.8925155 7.4411215  -26.6018135 48.9559375 7.442249  -29.177396 38.495497 7.3271065  -30.861238 43.6386955 8.500067000000001  -29.796423 43.6400675 9.5635095  -31.615295 42.108229 5.276476000000001  -31.925729 43.63745299999999 7.436818000000001  -32.989877 43.636021 6.3741015  -29.513755 39.98953299999999 9.496712  -28.1384905 38.4879025 8.373607  -29.7972165 41.5150555 11.687728  -34.057953 39.383491 9.558555999999999  -31.24147 43.75853 0  -32.645221 44.227992 -2.126787  -33.7099355 44.2266545 -1.06341  -32.6458485 45.2907605 -1.063391  -34.050227 46.822991 -2.126782  -34.0495995 45.7602225 -3.190178  -35.114314 45.758885 -2.126801  -36.178401 44.694779 -2.12682  -35.1136865 44.6961165 -3.190197  -34.048972 44.697454 -4.253574  -36.179487 46.820513 0  -36.179526 44.6948545 -0.001200499999999938  -36.178944 45.75764599999999 -1.06341  -37.2435895 45.7564105 0  -36.180069 45.7577215 1.0622095  -38.307692 44.692308 0  -37.24304650000001 44.6935435 -1.06341  -37.2441715 44.693619 1.0622095  -36.180651 44.69493 2.124419  -31.5811845 45.292044 -2.1267715  -32.9849355 45.761506 -4.2535585  -32.985563 46.8242745 -3.1901625  -31.920899 46.825558 -4.253543  -31.610257 44.2259455 -3.163798  -30.206506 43.7564835 -1.037011  -30.5462205 45.2899975 -3.1637825  -29.171542 43.754437 -2.074022  -29.795071 48.953198 4.251731  -27.380293 47.3909685 4.2287385  -28.4446295 47.3900535 3.165317  -27.398584 48.4367475 3.1646685  -28.7307345 48.954113 5.3151525  -26.3342475 48.4376625 4.22809  -25.002097 47.920297 2.077606  -26.0481425 46.873603 2.0782545  -27.094188 45.826909 2.078903  -21.275979 48.961101 -12.76292  -21.0768225 48.444291 -9.478887  -21.0586085 47.399152 -10.54224  -20.0122155 48.445024 -10.542761  -22.340586 48.960368 -11.699046  -23.405193 48.959635 -10.635172  -22.1232155 47.398419 -9.478366000000001  -18.748452 47.928947 -8.322602  -19.794845 46.88307500000001 -8.322081000000001  -20.841238 45.837203 -8.32156  -27.66182 46.831175 -8.507004999999999  -27.4009155 44.22689149999999 -7.372193  -26.3371105 45.2905275 -7.372362  -27.376961 45.2916525 -6.3313865  -28.725625 45.767539 -8.506836  -29.78943 44.703903 -8.506667  -28.440766 44.2280165 -6.3312175  -27.092102 43.75213 -4.155768  -26.0522515 43.751005 -5.1967435  -25.012401 43.74988 -6.237719  -23.40255 46.836311 -12.761139  -23.1920715 44.22642 -11.5815095  -22.127188 44.2276365 -12.645176  -22.1284875 45.2895635 -11.5819495  -24.4648345 44.7112405 -13.8239255  -24.466134 45.7731675 -12.760699  -23.4012505 45.774384 -13.8243655  -23.399951 44.712457 -14.887592  -25.529718 44.710024 -12.760259  -20.854425 43.742816 -10.40276  -25.532153 46.833929 -10.633918  -24.232662 45.2902985 -9.477039  -24.2273795 46.336581 -8.4360395  -23.1866955 46.335566 -9.477739  -21.8872045 44.7919355 -8.32086  -21.881922 45.838218 -7.2798605  -22.922606 45.839233 -6.238161  -22.9278885 44.7929505 -7.2791605  -22.933171 43.746668 -8.32016  -23.1638995 47.399434 -8.436666500000001  -24.468673 47.896782 -10.634545  -21.063892 45.2900435 -12.6460655  -22.3379545 46.83679100000001 -13.825255  -21.273359 46.837271 -14.889371  -22.336655 45.774864 -14.8884815  -21.081413 46.3354975 -11.5830895  -20.0168175 46.3359775 -12.6472055  -18.760276 45.834684 -10.40504  -19.8073505 44.78875 -10.4039  -22.118459 48.4445145 -8.4370265  -20.831725 47.929394 -6.238881  -21.8771655 46.8843135 -6.238521  -20.8364815 46.8832985 -7.2802205  -32.651306 42.1204615 -4.228232999999999  -31.5872475 43.184546 -4.228207  -32.652087 43.182978 -3.164935  -34.048191 43.6349375 -5.316872  -32.9833515 43.6365055 -6.380144  -32.9841325 44.699022 -5.316846  -31.919293 44.70059 -6.380118  -34.04741 42.572421 -6.38017  -31.255202 41.668502 -2.076296  -29.794872 53.205128 0  -28.730371 52.1427145 -2.049999999997887e-05  -29.794506 52.1420265 -1.0634675  -28.7305535 53.205818 -1.0636285  -27.666235 53.206508 -2.127257  -28.7301875 52.1427165 -2.127096  -29.79414 51.078925 -2.126935  -27.39707 50.5394625 -1.0634675  -29.794873 51.078952 2.126174  -29.7945065 51.0789385 -0.0003805000000001169  -27.3974365 50.539476 1.063087  -29.7948725 52.14204 1.063087  -28.
[...]
<PointData  Vectors="u"> 
<DataArray  type="Float64"  Name="u"  NumberOfComponents="3" format="ascii">6.0798456279210448e+01 5.3522734004976911e+01 7.2950042054057560e+00  6.0734519183010278e+01 5.1776712272748576e+01 8.9280463718239265e+00  6.0980485203697796e+01 5.3347552337370217e+01 7.5723064725424285e+00  5.9454726046372350e+01 5.2007901022926731e+01 7.3866534132677426e+00  6.0576990074616752e+01 5.1952180404655600e+01 8.6218915812424282e+00  6.0308840846939660e+01 5.0406613458376263e+01 9.9080156357407496e+00  5.9241098903984188e+01 5.0512531756006972e+01 8.6981374669695590e+00  5.8116636224780450e+01 5.0599208495525396e+01 7.5244862037275650e+00  5.9591946940392816e+01 5.1879767303115962e+01 7.7010207814059282e+00  6.1118683654459915e+01 5.3221433224133769e+01 7.9059737434866175e+00  5.4813221386593057e+01 4.5632560481385475e+01 9.1965623458171493e+00  5.5044224064528173e+01 4.5599318607417345e+01 9.4118072647567406e+00  5.5118182667847016e+01 4.6804031779962685e+01 8.2606229694132427e+00  5.3938835662957580e+01 4.5640415722412406e+01 8.2096373346147473e+00  5.2964285810034106e+01 4.5701358651950244e+01 7.2845846806951773e+00  5.4127868821295742e+01 4.5644683245909235e+01 8.4746417744351064e+00  5.4125414378790481e+01 4.6841004545584475e+01 7.2665475033289555e+00  5.5377748747054525e+01 4.8087487952767965e+01 7.3002128656607761e+00  5.5343268755889660e+01 4.6796531264609847e+01 8.5366283744862166e+00  5.5245427146521024e+01 4.5592057356247153e+01 9.6612503961602503e+00  5.2468146060726077e+01 4.1453935487585753e+01 1.1086288962363748e+01  5.3749847667702866e+01 4.2396441742045639e+01 1.1275287006295013e+01  5.4401105143736892e+01 4.2249519668885824e+01 1.2144381772398312e+01  5.3501768731745784e+01 4.2382117721750355e+01 1.1112372370833663e+01  5.4570780757819534e+01 4.3329663818028422e+01 1.1258310750352113e+01  5.4962896890723314e+01 4.3309099564028628e+01 1.1661233911978975e+01  5.4771229193527851e+01 4.2221658923600664e+01 1.2541955916756571e+01  5.3737847993235903e+01 4.1411468826708891e+01 1.2317941656370328e+01  5.4581996481259878e+01 4.2209435359253661e+01 1.2338968977031518e+01  5.3904549952004757e+01 4.2410335742465399e+01 1.1480648885396434e+01  6.2727975110611489e+01 4.9705532639146902e+01 1.3024043861779443e+01  6.2377704743219553e+01 4.7956569208635791e+01 1.4418022134096516e+01  6.3987371925568979e+01 4.9053381945008603e+01 1.4929876747376040e+01  6.2851258681043291e+01 4.9535873431722393e+01 1.3313120597739566e+01  6.3330274928800677e+01 4.7606141843157744e+01 1.5722045487667225e+01  6.2278137674621846e+01 4.8130689777251398e+01 1.4146371171954636e+01  6.3869609211954263e+01 4.9230196113071266e+01 1.4641862950374426e+01  6.4969661482967979e+01 4.8660257530862175e+01 1.6310223182687629e+01  6.1776352979740196e+01 4.6590695934571926e+01 1.5186335589084436e+01  6.2973357291883715e+01 4.9374663202380439e+01 1.3601171014709918e+01  5.6387958070300058e+01 4.2857335156735509e+01 1.3534764803768962e+01  5.7789342017948343e+01 4.3683766185588105e+01 1.4105694164366732e+01  5.6557472307323430e+01 4.2803866366895576e+01 1.3747938051424249e+01  5.6862359399605772e+01 4.3993030929740520e+01 1.2861639851043025e+01  5.7615304910632950e+01 4.3737686023394225e+01 1.3875189252677847e+01  5.8924827193985010e+01 4.4657410027878647e+01 1.4268406977668018e+01  5.8139469716488691e+01 4.4952575808066300e+01 1.3181723519951362e+01  5.7322142885197877e+01 4.5189533844261241e+01 1.2135495542754285e+01  5.7048165837072041e+01 4.3950466986319519e+01 1.3092213982586369e+01  5.6719523238623495e+01 4.2761910088599478e+01 1.3960236131081659e+01  5.7406397995748925e+01 4.7963593334324628e+01 9.4498936765082391e+00  5.7381625184540070e+01 4.6525000871262307e+01 1.0844944324940004e+01  5.8753599556955606e+01 4.7645497584849473e+01 1.1099170939093744e+01  5.7601138138920078e+01 4.7873302305778566e+01 9.7142001216890801e+00  5.8288497482438643e+01 4.6360394838829272e+01 1.1925986781830309e+01  5.7210838702674387e+01 4.6621404503342838e+01 1.0588209065799973e+01  5.8566246220171877e+01 4.7743966915355955e+01 1.0823064772433918e+01  5.9685180975733950e+01 4.7440398060340648e+01 1.2246578990092191e+01  5.6969209864441822e+01 4.5316065869179980e+01 1.1656960968874653e+01  5.7785628678513469e+01 4.7797489686592712e+01 9.9923394938625769e+00  5.7735284837023052e+01 5.0795465617546107e+01 6.9609033182751245e+00  5.7778482736900045e+01 4.9239421852436521e+01 8.5064195617890075e+00  5.7948172372737083e+01 5.0673463439526635e+01 7.2136857569356083e+00  5.8822048844338156e+01 4.9167554587422572e+01 9.6514531099864271e+00  5.7588483959320023e+01 4.9360532696418645e+01 8.2249787588920285e+00  5.9040702258715015e+01 5.0638624975553455e+01 8.3989879409242558e+00  5.6296002494472781e+01 4.6737604057459443e+01 9.5399935951610075e+00  5.6128771074946577e+01 4.5474110678548918e+01 1.0636057744815210e+01  5.6473681041988748e+01 4.6666283198657318e+01 9.8017912831784351e+00  5.7146836567259918e+01 4.5248221046361330e+01 1.1892416334088107e+01  5.5934450428511404e+01 4.4273768600660297e+01 1.1648555760747197e+01  5.6301815059816306e+01 4.5415623734235609e+01 1.0885158104046718e+01  5.5136090807666690e+01 4.4416960111247725e+01 1.0711032924290668e+01  5.6098852038323692e+01 4.4217367244553856e+01 1.1876441770254511e+01  5.6426996343550577e+01 4.8031223123715556e+01 8.3582691439735708e+00  5.6607198177761909e+01 4.7959092034835905e+01 8.6451254469782874e+00  5.5697474247871469e+01 4.3101834093181211e+01 1.2579437906515189e+01  5.4782011892139479e+01 4.3304969227511478e+01 1.1447738173524614e+01  5.5500008518204147e+01 4.3131357887561677e+01 1.2366964597459736e+01  5.6702273771763913e+01 4.4070264160314245e+01 1.2629263664496570e+01  5.5730686424693197e+01 4.4303575127840844e+01 1.1422805379560364e+01  5.9017695418629572e+01 4.9069575430141128e+01 9.9385577419891042e+00  6.0021477379339125e+01 4.8907459487750494e+01 1.1112705088336472e+01  5.9236902682364814e+01 5.2139794767622014e+01 7.0921357686269078e+00  6.0164941600592051e+01 4.8759317761341642e+01 1.1397979400118340e+01  6.0475927709744695e+01 5.0263036405502774e+01 1.0202031235653722e+01  6.0634738953465600e+01 5.0133206752671491e+01 1.0505420544668105e+01  5.9172391890460375e+01 4.8941434890349562e+01 1.0226294330381830e+01  5.2523629653603294e+01 4.3387426266939151e+01 9.2133485803480148e+00  5.1929774101508166e+01 4.3299768626544093e+01 8.2175235098884567e+00  5.2019979946604714e+01 4.2371507196053045e+01 9.2227502809391435e+00  5.1159584705249920e+01 4.1922025130560733e+01 8.2235744510517552e+00  5.1576979825339187e+01 4.2276730668297034e+01 9.2681627330136855e+00  5.1132386848828190e+01 4.3728012528114668e+01 7.4531149379838952e+00  6.1324338531318354e+01 4.8430360116561687e+01 1.2895056202251329e+01  6.1696834754717479e+01 4.9947878697054421e+01 1.1741084381748246e+01  6.0343555041637117e+01 4.8648045502360418e+01 1.1689616802523640e+01  6.1820730302118562e+01 4.9783779458345727e+01 1.2037713302013312e+01  6.1442232744147688e+01 4.8270058580701985e+01 1.3168260599196708e+01  5.9994358625680817e+01 4.7213829105429689e+01 1.2782778220425657e+01  5.4926987817492048e+01 4.4414080082665045e+01 1.0476677721661197e+01  5.3917600415069622e+01 4.4512340621602100e+01 9.3279584556348176e+00  5.4727566779688267e+01 4.4460491943507300e+01 1.0267351086539271e+01  5.3855813886840792e+01 4.3428242618234812e+01 1.0346923957248833e+01  5.3066149270687028e+01 4.3582107505652566e+01 9.5100665695988162e+00  5.4098560449387676e+01 4.4520192004353767e+01 9.5641632252253554e+00  5.4158433158796562e+01 4.1193597281033263e+01 1.2982130213323714e+01  5.5428923797887961e+01 4.1986092635699748e+01 1.3430653395765033e+01  5.6050495661040067e+01 4.1694300501111890e+01 1.4352689716430927e+01  5.5231438640329721e+01 4.2004108939457105e+01 1.3225998961751344e+01  5.9460635554965769e+01 4.5908656600102368e+01 1.3548204983344396e+01  6.0901554373853934e+01 4.6934389890153170e+01 1.3963447004767223e+01  5.9840131119929055e+01 4.7323435116622207e+01 1.2514011364792188e+01  6.0310691385359540e+01 4.5606435540745906e+01 1.4702535757808722e+01  5.9328189970642526e+01 4.6031500725110448e+01 1.3295567300250250e+01  6.0750737158403695e+01 4.7058817663739973e+01 1.3693742044186481e+01  6.6113038155817648e+01 5.2130117164063748e+01 1.3983540042630782e+01  6.3263479809954468e+01 5.1133256090779540e+01 1.2123304834962548e+01  6.4503787057585356e+01 5.0720083094322625e+01 1.3785109733591165e+01  6.4961192378776175e+01 5.2404797929700955e+01 1.2547857479337495e+01  6.4379580249068084e+01 5.0896515111304979e+01 1.3480028631865069e+01  6.3781599859963727e+01 5.2611626847591651e+01 1.1174240919722918e+01  6.3411690654119489e+01 5.0969183249936478e+01 1.2436057966348617e+01  6.3517856003512648e+01 5.2992843079176779e+01 1.0530540260959823e+01  6.3654715766790538e+01 5.2794730529697375e+01 1.0849104053742236e+01  6.3153322973605505e+01 5.1336696288021912e+01 1.1815496053351881e+01  6.4834057076780297e+01 5.2610989762815770e+01 1.2224545395541737e+01  6.2169600304154429e+01 5.1344050528445017e+01 1.0820272450052837e+01  5.4023770649978005e+01 4.3441571267329330e+01 1.0574148870778027e+01  5.2877797713021472e+01 4.3428361773054462e+01 9.2832893326359773e+00  5.2828240561095626e+01 4.4427864681962802e+01 8.2144373983473837e+00  5.2064179167474236e+01 4.3521987543054024e+01 8.5063652668729741e+00  5.1918586710693390e+01 4.4497014263555826e+01 7.3648921075212987e+00  5.3057503714057283e+01 4.4569939443184893e+01 8.4661661845399259e+00  5.5854844332750474e+01 4.3059129996701451e+01 1.2794908199661734e+01  6.2342412637818789e+01 5.3118187341268495e+01 9.1938037703669639e+00  6.2172384558126048e+01 5.3296705148556448e+01 8.8728647774754172e+00  6.1876508726940884e+01 5.1677668338824319e+01 1.0195566876265900e+01  5.6718908631070327e+01 4.9315451244023549e+01 7.3934676794984489e+00  5.7982637989461963e+01 4.9165520157681570e+01 8.8090494119881786e+00  5.9397980395996463e+01 5.0385097964331436e+01 9.0111862124325590e+00  6.2046301615705026e+01 5.1527737302031220e+01 1.0509802149859004e+01  5.7394292038324039e+01 4.2438671842969981e+01 1.4951346500849382e+01  5.6200738580654743e+01 4.1633589321771041e+01 1.4560076607756127e+01  5.7225865142549132e+01 4.2493235942059840e+01 1.4732919052246617e+01  5.5668070919895193e+01 4.0561831096892924e+01 1.5110001188408349e+01  5.6804544128077531e+01 4.1293410724794640e+01 1.5511090168097001e+01  5.8030081940329865e+01 4.2061960845499783e+01 1.5970402831738614e+01  5.8495371975288371e+01 4.3342266260801438e+01 1.5151496727082908e+01  5.4930811488593378e+01 4.8157470461457471e+01 6.7986004114242453e+00  5.5183431964954508e+01 4.8094748777531933e+01 7.0130356278819654e+00  5.3939019128654692e+01 4.6831378117821494e+01 6.9971274493007982e+00  5.4891992154176549e+01 4.6869501333888607e+01 8.0204846093713744e+00  5.3602996834982250e+01 4.3416515974513224e+01 1.0167478169256469e+01  5.3665327903389006e+01 4.4510105604249077e+01 9.1444372151378062e+00  6.1166816228247981e+01 4.8553098182621163e+01 1.2611465495511572e+01  6.0913319813778955e+01 5.1649864697738195e+01 9.2550987183380240e+00  5.2583333946128946e+01 4.2425458200559106e+01 1.0140299815130524e+01  6.5575883214292475e+01 5.0381389780216658e+01 1.5193214232783877e+01  5.2852024020598563e+01 4.2408399877221832e+01 1.0260643267450515e+01  6.2469458421275661e+01 5.2936998438066212e+01 9.5304496943591257e+00  5.7581488415351494e+01 4.6465460118260353e+01 1.1110075608068907e+01  5.0042368226115713e+01 4.2662032774654861e+01 7.5732325491926265e+00  5.0979873183570255e+01 4.2923493635872923e+01 7.1511711591268190e+00  5.1445632975595501e+01 4.3183897372695469e+01 8.1974581041465999e+00  5.0427351561693875e+01 4.1885833380541627e+01 8.5772543127232943e+00  5.8907916083060385e+01 4.7534122746252883e+01 1.1374114658489367e+01  5.6076744253784916e+01 4.6784916325879223e+01 9.2880994992634971e+00  5.5918198420782680e+01 4.5522503359291065e+01 1.0395126049738115e+01  5.6551155771680904e+01 4.9386020936630366e+01 7.0982334063564618e+00  5.6195882476397145e+01 4.8103557438560188e+01 8.0890634244192459e+00  5.6305611761647768e+01 4.9465858931369944e+01 6.8360108472622159e+00  5.8469203667599544e+01 4.6286543703811233e+01 1.2181989417736126e+01  5.8617159452094889e+01 4.6178344984587270e+01 1.2435292781837411e+01  5.7966662001012594e+01 4.5029336079437691e+01 1.2938342001158331e+01  6.1536332450664013e+01 5.0098255994815979e+01 1.1439343398933575e+01  5.2632174023754814e+01 5.0772088373100132e+01 -2.2966155573414256e-02  5.4091209643945724e+01 5.0563890779305318e+01 -2.8159941977273775e+00  5.4431219465579161e+01 5.1699715089744032e+01 -1.3016284894276793e+00  5.2976032999747225e+01 5.0182844488857867e+01 -1.3124038904345341e+00  5.2316315389549736e+01 5.0552553846185958e+01 -1.9341705215898055e+00  5.3725428401457478e+01 5.0770741568783833e+01 -2.9136882950641900e+00  5.3856778649464744e+01 5.2073899168143456e+01 -1.7797002540542237e+00  5.5317729133916707e+01 5.3572641451397061e+01 -1.9056866914510846e+00  5.5135454220711807e+01 5.2207402107162622e+01 -2.9290649184926196e+00  5.5039119535937161e+01 5.0868366232901522e+01 -4.2197541523332909e+00  5.2971685223946004e+01 5.2929489341568363e+01 -2.0118130046729047e-03  5.5151900127781900e+01 5.3764603519137118e+01 -7.1328820468744940e-03  5.4093342321059978e+01 5.3348047229224832e+01 -7.9913561037897662e-01  5.4449171800755984e+01 5.4481815071383288e+01 1.2844678965753940e-02  5.4095738813525202e+01 5.3340011742324513e+01 8.1032939413918081e-01  5.6006998045832368e+01 5.5962165554104786e+01 -2.4529598908631205e-03  5.5591400667922130e+01 5.4821435559763934e+01 -8.1020369604828157e-01  5.5579029704359883e+01 5.4836046261768097e+01 8.0729989887806941e-01  5.5362448460482625e+01 5.3565699778665966e+01 1.8479637129002975e+00  5.2698411490930532e+01 4.9062451986025877e+01 -2.9375205628637984e+00  5.3629750291352259e+01 4.9423664185583519e+01 -4.1425258146034496e+00  5.2233805359073983e+01 4.9274602182962980e+01 -2.9919605752560519e+00  5.2224006842305258e+01 4.7973342994862740e+01 -4.3127120372066186e+00  5.3971073613654248e+01 4.9339613922209523e+01 -4.3233143356630448e+00  5.2561814813383350e+01 4.9517112508122395e+01 -3.0077587968646102e+00  5.2608976622333465e+01 4.7922335096835326e+01 -4.2422739845013879e+00  5.2701376655246335e+01 4.8146641954730782e+01 -4.4820088656385151e+00  4.9492486809644163e+01 4.4711607803275164e+01 4.8915983910649778e+00  5.0603377348945351e+01 4.3755988884747374e+01 5.9553133729625660e+00  5.0323472947920600e+01 4.4875754263701332e+01 4.4869068316035134e+00  4.9629999078754864e+01 4.3087257139298586e+01 4.7292918331073315e+00  4.9830625396235931e+01 4.3580883036426364e+01 6.2363962894592726e+00  5.0247462282829630e+01 4.2274252044340592e+01 5.9102250039491935e+00  5.0395849469241185e+01 4.3928938082358499e+01 4.8279285388628157e+00  4.9510564852981190e+01 4.4323081994420498e+01 5.3380861741575423e+00  5.0461687076705267e+01 4.5609078397159962e+01 4.7579744532611183e+00  5.0244006835992217e+01 3.7923701553334794e+01 -1.2561889962913796e+01  5.1201031244601282e+01 3.8592560178085250e+01 -9.9615343929998748e+00  5.1212308317680005e+01 3.8792757723237187e+01 -1.1387019556720219e+01  5.1096563517539025e+01 3.7900828727254343e+01 -1.0767949257941790e+01  5.0519604536914116e+01 3.8779294606711161e+01 -1.1840812763562273e+01  5.0463617948402231e+01 3.9433160584324455e+01 -1.1303156252792721e+01  5.1361169417430830e+01 3.9695824939987666e+01 -1.0677530354129489e+01  5.1243664608394468e+01 4.0874710279942668e+01 -9.6446415195022333e+00  5.0863662342338245e+01 3.9950773541206857e+01 -1.0552620925273624e+01  5.1394715391172625e+01 4.0560025018025016e+01 -1.0941791942918208e+01  5.2521701325215787e+01 4.3386120965767027e+01 -9.2152490952448005e+00  5.3904188443695972e+01 4.4507348881420711e+01 -9.3155974875933065e+00  5.2863006056307299e+01 4.3427831122600814e+01 -9.2740750179448224e+00  5.2816156523487500e+01 4.4418843945758802e+01 -8.2060589488778870e+00  5.3643269169893173e+01 4.4498609916014814e+01 -9.1376320663990196e+00  5.4808652678773200e+01 4.5630846815329278e+01 -9.1981931151970784e+00  5.3927698914313439e+01 4.5632395849533786e+01 -8.2035510155301914e+00  5.2945328827419416e+01 4.5702597400594698e+01 -7.2676190475188633e+00  5.3038759141223494e+01 4.4587005273172529e+01 -8.4363012364729393e+00  5.3043858949594586e+01 4.3586359119200033e+01 -9.4881964567438963e+00  5.2175167176705479e+01 3.9644036387292253e+01 -1.2611756359223673e+01  5.3369752219265919e+01 4.0424522848491627e+01 -1.2862415877737199e+01  5.3111796109867257e+01 3.9474274904290091e+01 -1.3553401934306262e+01  5.2468941153053713e+01 3.9690644168175631e+01 -1.2609970466524997e+01  5.3898134076549240e+01 4.0178095725524059e+01 -1.3712630473890043e+01  5.3159310302417389e+01 4.0408086553956572e+01 -1.2743174064279561e+01  5.2915604775273295e+01 3.9461862255098211e+01 -1.3438668936491974e+01  5.3568329422562080e+01 3.9183130767703155e+01 -1.4403476224291305e+01  5.4156148042794605e+01 4.1189459873008758e+01 -1.2985661767669086e+01  5.2595773130740035e+01 3.9850860875741922e+01 -1.2775647417314280e+01  5.2464218238343875e+01 4.1453044585664436e+01 -1.1093472878981268e+01  5.2779785713297422e+01 4.1500305934818947e+01 -1.1112370191642734e+01  5.2045998883073167e+01 4.1468275266639907e+01 -1.0119278715238993e+01  5.1999901447324248e+01 4.0611864012401192e+01 -1.0921055333020581e+01  5.2065043843146988e+01 4.0853968296788196e+01 -1.1146257937080092e+01  5.1465229319199601e+01 4.1184599982501858e+01 -1.0205779490976797e+01  5.1410630859325288e+01 4.2122573557950005e+01 -9.3981361402565415e+00  5.2144911343205649e+01 4.1746470579017206e+01 -1.0354750342319118e+01  5.2928225164878370e+01 4.1663179425850487e+01 -1.1296340081665749e+01  5.1339313139374489e+01 4.0319798369471521e+01 -9.9807841914008133e+00  5.1602692140372703e+01 4.0530414843662193e+01 -1.1017334770506265e+01  5.2222696668416319e+01 3.8774330628849611e+01 -1.3259433224745557e+01  5.2005006216288180e+01 3.8793702707022000e+01 -1.3202124505085356e+01  5.1672822879413609e+01 3.7904533613446482e+01 -1.3841103626339859e+01  5.2621266268759307e+01 3.8540220938032704e+01 -1.4074071546303680e+01  5.1721261451528818e+01 3.8952261071665703e+01 -1.2308458836309853e+01  5.1499564026651974e+01 3.8134306387230126e+01 -1.2904168538268893e+01  5.1121643268455813e+01 3.9024824868898413e+01 -1.2185015511214639e+01  5.1767159973590140e+01 3.9186876501420777e+01 -1.2517365016814272e+01  5.1218065433657692e+01 3.9301647191724463e+01 -9.5022829665599282e+00  5.1255345459287661e+01 4.2116921875218381e+01 -8.4285902470009120e+00  5.0872317023533355e+01 4.1354369938559771e+01 -9.1439311520285109e+00  5.0940882033980373e+01 4.0907323328396430e+01 -1.0026530893761356e+01  5.6648941580092313e+01 5.0748852139284821e+01 -5.7487821868425355e+00  5.5238010753025499e+01 4.9385051947476356e+01 -5.6764080807789350e+00  5.5322705937900132e+01 5.0737997575606116e+01 -4.1993293206692908e+00  5.6410035788833852e+01 5.0861761914895027e+01 -5.5295375722315150e+00  5.6299988676771392e+01 4.9454149529560617e+01 -6.8440538863912268e+00  5.4988883126442701e+01 4.9489983330737438e+01 -5.4844552323279183e+00  5.4929021998710880e+01 4.8154488834722876e+01 -6.8015731105344130e+00  5.7735282681114803e+01 5.0783237951832675e+01 -6.9709689765868763e+00  5.5378708732258310e+01 5.0842889934848415e+01 -4.5108097801436911e+00  3.9427288315293353e+01 3.9615778994029988e+01 6.7501542872375739e-02  4.2606357550381588e+01 3.7590934091281426e+01 -1.7559908432185134e-02  4.2976124202981985e+01 4.1151979953648983e+01 -1.8874480488990739e+00  3.8834796926503074e+01 3.6162062382904445e+01 -2.9594556597197066e+00  3.9601757813712155e+01 3.2634629801455269e+01 -6.3153023018869590e+00  4.3384791356281646e+01 3.8766440554280408e+01 -4.1938544415419532e+00  4.5473967834649102e+01 4.2437712410888821e+01 -3.1013700346863144e+00  4.7163114707904107e+01 3.8676428822499282e+01 -1.9080097217459309e+00  4.5655224201150553e+01 4.2486716455211216e+01 3.0318317562140957e+