<?xml version="1.0"?>
<VTKFile type="UnstructuredGrid"  version="0.1"  >
<UnstructuredGrid>
<Piece  NumberOfPoints="7777" NumberOfCells="36000">
<Points>
<DataArray  type="Float64"  NumberOfComponents="3"  format="ascii">0 0 0  2 0 0  4 0 0  6 0 0  8 0 0  10 0 0  12 0 0  14 0 0  16 0 0  18 0 0  20 0 0  22 0 0  24 0 0  26 0 0  28 0 0  30 0 0  32 0 0  34 0 0  36 0 0  38 0 0  40 0 0  42 0 0  44 0 0  46 0 0  48 0 0  50 0 0  52 0 0  54 0 0  56 0 0  58 0 0  60 0 0  62 0 0  64 0 0  66 0 0  68 0 0  70 0 0  72 0 0  74 0 0  76 0 0  78 0 0  80 0 0  82 0 0  84 0 0  86 0 0  88 0 0  90 0 0  92 0 0  94 0 0  96 0 0  98 0 0  100 0 0  102 0 0  104 0 0  106 0 0  108 0 0  110 0 0  112 0 0  114 0 0  116 0 0  118 0 0  120 0 0  122 0 0  124 0 0  126 0 0  128 0 0  130 0 0  132 0 0  134 0 0  136 0 0  138 0 0  140 0 0  142 0 0  144 0 0  146 0 0  148 0 0  150 0 0  152 0 0  154 0 0  156 0 0  158 0 0  160 0 0  162 0 0  164 0 0  166 0 0  168 0 0  170 0 0  172 0 0  174 0 0  176 0 0  178 0 0  180 0 0  182 0 0  184 0 0  186 0 0  188 0 0  190 0 0  192 0 0  194 0 0  196 0 0  198 0 0  200 0 0  0 1 0  2 1 0  4 1 0  6 1 0  8 1 0  10 1 0  12 1 0  14 1 0  16 1 0  18 1 0  20 1 0  22 1 0  24 1 0  26 1 0  28 1 0  30 1 0  32 1 0  34 1 0  36 1 0  38 1 0  40 1 0  42 1 0  44 1 0  46 1 0  48 1 0  50 1 0  52 1 0  54 1 0  56 1 0  58 1 0  60 1 0  62 1 0  64 1 0  66 1 0  68 1 0  70 1 0  72 1 0  74 1 0  76 1 0  78 1 0  80 1 0  82 1 0  84 1 0  86 1 0  88 1 0  90 1 0  92 1 0  94 1 0  96 1 0  98 1 0  100 1 0  102 1 0  104 1 0  106 1 0  108 1 0  110 1 0  112 1 0  114 1 0  116 1 0  118 1 0  120 1 0  122 1 0  124 1 0  126 1 0  128 1 0  130 1 0  132 1 0  134 1 0  136 1 0  138 1 0  140 1 0  142 1 0  144 1 0  146 1 0  148 1 0  150 1 0  152 1 0  154 1 0  156 1 0  158 1 0  160 1 0  162 1 0  164 1 0  166 1 0  168 1 0  170 1 0  172 1 0  174 1 0  176 1 0  178 1 0  180 1 0  182 1 0  184 1 0  186 1 0  188 1 0  190 1 0  192 1 0  194 1 0  196 1 0  198 1 0  200 1 0  0 2 0  2 2 0  4 2 0  6 2 0  8 2 0  10 2 0  12 2 0  14 2 0  16 2 0  18 2 0  20 2 0  22 2 0  24 2 0  26 2 0  28 2 0  30 2 0  32 2 0  34 2 0  36 2 0  38 2 0  40 2 0  42 2 0  44 2 0  46 2 0  48 2 0  50 2 0  52 2 0  54 2 0  56 2 0  58 2 0  60 2 0  62 2 0  64 2 0  66 2 0  68 2 0  70 2 0  72 2 0  74 2 0  76 2 0  78 2 0  80 2 0  82 2 0  84 2 0  86 2 0  88 2 0  90 2 0  92 2 0  94 2 0  96 2 0  98 2 0  100 2 0  102 2 0  104 2 0  106 2 0  108 2 0  110 2 0  112 2 0  114 2 0  116 2 0  118 2 0  120 2 0  122 2 0  124 2 0  126 2 0  128 2 0  130 2 0  132 2 0  134 2 0  136 2 0  138 2 0  140 2 0  142 2 0  144 2 0  146 2 0  148 2 0  150 2 0  152 2 0  154 2 0  156 2 0  158 2 0  160 2 0  162 2 0  164 2 0  166 2 0  168 2 0  170 2 0  172 2 0  174 2 0  176 2 0  178 2 0  180 2 0  182 2 0  184 2 0  186 2 0  188 2 0  190 2 0  192 2 0  194 2 0  196 2 0  198 2 0  200 2 0  0 3 0  2 3 0  4 3 0  6 3 0  8 3 0  10 3 0  12 3 0  14 3 0  16 3 0  18 3 0  20 3 0  22 3 0  24 3 0  26 3 0  28 3 0  30 3 0  32 3 0  34 3 0  36 3 0  38 3 0  40 3 0  42 3 0  44 3 0  46 3 0  48 3 0  50 3 0  52 3 0  54 3 0  56 3 0  58 3 0  60 3 0  62 3 0  64 3 0  66 3 0  68 3 0  70 3 0  72 3 0  74 3 0  76 3 0  78 3 0  80 3 0  82 3 0  84 3 0  86 3 0  88 3 0  90 3 0  92 3 0  94 3 0  96 3 0  98 3 0  100 3 0  102 3 0  104 3 0  106 3 0  108 3 0  110 3 0  112 3 0  114 3 0  116 3 0  118 3 0  120 3 0  122 3 0  124 3 0  126 3 0  128 3 0  130 3 0  132 3 0  134 3 0  136 3 0  138 3 0  140 3 0  142 3 0  144 3 0  146 3 0  148 3 0  150 3 0  152 3 0  154 3 0  156 3 0  158 3 0  160 3 0  162 3 0  164 3 0  166 3 0  168 3 0  170 3 0  172 3 0  174 3 0  176 3 0  178 3 0  180 3 0  182 3 0  184 3 0  186 3 0  188 3 0  190 3 0  192 3 0  194 3 0  196 3 0  198 3 0  200 3 0  0 4 0  2 4 0  4 4 0  6 4 0  8 4 0  10 4 0  12 4 0  14 4 0  16 4 0  18 4 0  20 4 0  22 4 0  24 4 0  26 4 0  28 4 0  30 4 0  32 4 0  34 4 0  36 4 0  38 4 0  40 4 0  42 4 0  44 4 0  46 4 0  48 4 0  50 4 0  52 4 0  54 4 0  56 4 0  58 4 0  60 4 0  62 4 0  64 4 0  66 4 0  68 4 0  70 4 0  72 4 0  74 4 0  76 4 0  78 4 0  80 4 0  82 4 0  84 4 0  86 4 0  88 4 0  90 4 0  92 4 0  94 4 0  96 4 0  98 4 0  100 4 0  102 4 0  104 4 0  106 4 0  108 4 0  110 4 0  112 4 0  114 4 0  116 4 0  118 4 0  120 4 0  122 4 0  124 4 0  126 4 0  128 4 0  130 4 0  132 4 0  134 4 0  136 4 0  138 4 0  140 4 0  142 4 0  144 4 0  146 4 0  148 4 0  150 4 0  152 4 0  154 4 0  156 4 0  158 4 0  160 4 0  162 4 0  164 4 0  166 4 0  168 4 0  170 4 0  172 4 0  174 4 0  176 4 0  178 4 0  180 4 0  182 4 0  184 4 0  186 4 0  188 4 0  190 4 0  192 4 0  194 4 0  196 4 0  198 4 0  200 4 0  0 5 0  2 5 0  4 5 0  6 5 0  8 5 0  10 5 0  12 5 0  14 5 0  16 5 0  18 5 0  20 5 0  22 5 0  24 5 0  26 5 0  28 5 0  30 5 0  32 5 0  34 5 0  36 5 0  38 5 0  40 5 0  42 5 0  44 5 0  46 5 0  48 5 0  50 5 0  52 5 0  54 5 0  56 5 0  58 5 0  60 5 0  62 5 0  64 5 0  66 5 0  68 5 0  70 5 0  72 5 0  74 5 0  76 5 0  78 5 0  80 5 0  82 5 0  84 5 0  86 5 0  88 5 0  90 5 0  92 5 0  94 5 0  96 5 0  98 5 0  100 5 0  102 5 0  104 5 0  106 5 0  108 5 0  110 5 0  112 5 0  114 5 0  116 5 0  118 5 0  120 5 0  122 5 0  124 5 0  126 5 0  128 5 0  130 5 0  132 5 0  134 5 0  136 5 0  138 5 0  140 5 0  142 5 0  144 5 0  146 5 0  148 5 0  150 5 0  152 5 0  154 5 0  156 5 0  158 5 0  160 5 0  162 5 0  164 5 0  166 5 0  168 5 0  170 5 0  172 5 0  174 5 0  176 5 0  178 5 0  180 5 0  182 5 0  184 5 0  186 5 0  188 5 0  190 5 0  192 5 0  194 5 0  196 5 0  198 5 0  200 5 0  0 6 0  2 6 0  4 6 0  6 6 0  8 6 0  10 6 0  12 6 0  14 6 0  16 6 0  18 6 0  20 6 0  22 6 0  24 6 0  26 6 0  28 6 0  30 6 0  32 6 0  34 6 0  36 6 0  38 6 0  40 6 0  42 6 0  44 6 0  46 6 0  48 6 0  50 6 0  52 6 0  54 6 0  56 6 0  58 6 0  60 6 0  62 6 0  64 6 0  66 6 0  68 6 0  70 6 0  72 6 0  74 6 0  76 6 0  78 6 0  80 6 0  82 6 0  84 6 0  86 6 0  88 6 0  90 6 0  92 6 0  94 6 0  96 6 0  98 6 0  100 6 0  102 6 0  104 6 0  106 6 0  108 6 0  110 6 0  112 6 0  114 6 0  116 6 0  118 6 0  120 6 0  122 6 0  124 6 0  126 6 0  128 6 0  130 6 0  132 6 0  134 6 0  136 6 0  138 6 0  140 6 0  142 6 0  144 6 0  146 6 0  148 6 0  150 6 0  152 6 0  154 6 0  156 6 0  158 6 0  160 6 0  162 6 0  164 6 0  166 6 0  168 6 0  170 6 0  172 6 0  174 6 0  176 6 0  178 6 0  180 6 0  182 6 0  184 6 0  186 6 0  188 6 0  190 6 0  192 6 0  194 6 0  196 6 0  198 6 0  200 6 0  0 0 1  2 0 1  4 0 1  6 0 1  8 0 1  10 0 1  12 0 1  14 0 1  16 0 1  18 0 1  20 0 1  22 0 1  24 0 1  26 0 1  28 0 1  30 0 1  32 0 1  34 0 1  36 0 1  38 0 1  40 0 1  42 0 1  44 0 1  46 0 1  48 0 1  50 0 1  52 0 1  54 0 1  56 0 1  58 0 1  60 0 1  62 0 1  64 0 1  66 0 1  68 0 1  70 0 1  72 0 1  74 0 1  76 0 1  78 0 1  80 0 1  82 0 1  84 0 1  86 0 1  88 0 1  90 0 1  92 0 1  94 0 1  96 0 1  98 0 1  100 0 1  102 0 1  104 0 1  106 0 1  108 0 1  110 0 1  112 0 1  114 0 1  116 0 1  118 0 1  120 0 1  122 0 1  124 0 1  126 0 1  128 0 1  130 0 1  132 0 1  134 0 1  136 0 1  138 0 1  140 0 1  142 0 1  144 0 1  146 0 1  148 0 1  150 0 1  152 0 1  154 0 1  156 0 1  158 0 1  160 0 1  162 0 1  164 0 1  166 0 1  168 0 1  170 0 1  172 0 1  174 0 1  176 0 1  178 0 1  180 0 1  182 0 1  184 0 1  186 0 1  188 0 1  190 0 1  192 0 1  194 0 1  196 0 1  198 0 1  200 0 1  0 1 1  2 1 1  4 1 1  6 1 1  8 1 1  10 1 1  12 1 1  14 1 1  16 1 1  18 1 1  20 1 1  22 1 1  24 1 1  26 1 1  28 1 1  30 1 1  32 1 1  34 1 1  36 1 1  38 1 1  40 1 1  42 1 1  44 1 1  46 1 1  48 1 1  50 1 1  52 1 1  54 1 1  56 1 1  58 1 1  60 1 1  62 1 1  64 1 1  66 1 1  68 1 1  70 1 1  72 1 1  74 1 1  76 1 1  78 1 1  80 1 1  82 1 1  84 1 1  86 1 1  88 1 1  90 1 1  92 1 1  94 1 1  96 1 1  98 1 1  100 1 1  102 1 1  104 1 1  106 1 1  108 1 1  110 1 1  112 1 1  114 1 1  116 1 1  118 1 1  120 1 1  122 1 1  124 1 1  126 1 1  128 1 1  130 1 1  132 1 1  134 1 1  136 1 1  138 1 1  140 1 1  142 1 1  144 1 1  146 1 1  148 1 1  150 1 1  152 1 1  154 1 1  156 1 1  158 1 1  160 1 1  162 1 1  164 1 1  166 1 1  168 1 1  170 1 1  172 1 1  174 1 1  176 1 1  178 1 1  180 1 1  182 1 1  184 1 1  186 1 1  188 1 1  190 1 1  192 1 1  194 1 1  196 1 1  198 1 1  200 1 1  0 2 1  2 2 1  4 2 1  6 2 1  8 2 1  10 2 1  12 2 1  14 2 1  16 2 1  18 2 1  20 2 1  22 2 1  24 2 1  26 2 1  28 2 1  30 2 1  32 2 1  34 2 1  36 2 1  38 2 1  40 2 1  42 2 1  44 2 1  46 2 1  48 2 1  50 2 1  52 2 1  54 2 1  56 2 1  58 2 1  60 2 1  62 2 1  64 2 1  66 2 1  68 2 1  70 2 1  72 2 1  74 2 1  76 2 1  78 2 1  80 2 1  82 2 1  84 2 1  86 2 1  88 2 1  90 2 1  92 2 1  94 2 1  96 2 1  98 2 1  100 2 1  102 2 1  104 2 1  106 2 1  108 2 1  110 2 1  112 2 1  114 2 1  116 2 1  118 2 1  120 2 1  122 2 1  124 2 1  126 2 1  128 2 1  130 2 1  132 2 1  134 2 1  136 2 1  138 2 1  140 2 1  142 2 1  144 2 1  146 2 1  148 2 1  150 2 1  152 2 1  154 2 1  156 2 1  158 2 1  160 2 1  162 2 1  164 2 1  166 2 1  168 2 1  170 2 1  172 2 1  174 2 1  176 2 1  178 2 1  180 2 1  182 2 1  184 2 1  186 2 1  188 2 1  190 2 1  192 2 1  194 2 1  196 2 1  198 2 1  200 2 1  0 3 1  2 3 1  4 3 1  6 3 1  8 3 1  10 3 1  12 3 1  14 3 1  16 3 1  18 3 1  20 3 1  22 3 1  24 3 1  26 3 1  28 3 1  30 3 1  32 3 1  34 3 1  36 3 1  38 3 1  40 3 1  42 3 1  44 3 1  46 3 1  48 3 1  50 3 1  52 3 1  54 3 1  56 3 1  58 3 1  60 3 1  62 3 1  64 3 1  66 3 1  68 3 1  70 3 1  72 3 1  74 3 1  76 3 1  78 3 1  80 3 1  82 3 1  84 3 1  86 3 1  88 3 1  90 3 1  92 3 1  94 3 1  96 3 1  98 3 1  100 3 1  102 3 1  104 3 1  106 3 1  108 3 1  110 3 1  112 3 1  114 3 1  116 3 1  118 3 1  120 3 1  122 3 1  124 3 1  126 3 1  128 3 1  130 3 1  132 3 1  134 3 1  136 3 1  138 3 1  140 3 1  142 3 1  144 3 1  146 3 1  148 3 1  150 3 1  152 3 1  154 3 1  156 3 1  158 3 1  160 3 1  162 3 1  164 3 1  166 3 1  168 3 1  170 3 1  172 3 1  174 3 1  176 3 1  178 3 1  180 3 1  182 3 1  184 3 1  186 3 1  188 3 1  190 3 1  192 3 1  194 3 1  196 3 1  198 3 1  200 3 1  0 4 1  2 4 1  4 4 1  6 4 1  8 4 1  10 4 1  12 4 1  14 4 1  16 4 1  18 4 1  20 4 1  22 4 1  24 4 1  26 4 1  28 4 1  30 4 1  32 4 1  34 4 1  36 4 1  38 4 1  40 4 1  42 4 1  44 4 1  46 4 1  48 4 1  50 4 1  52 4 1  54 4 1  56 4 1  58 4 1  60 4 1  62 4 1  64 4 1  66 4 1  68 4 1  70 4 1  72 4 1  74 4 1  76 4 1  78 4 1  80 4 1  82 4 1  84 4 1  86 4 1  88 4 1  90 4 1  92 4 1  94 4 1  96 4 1
[...]
<PointData  Vectors="f_1195"> 
<DataArray  type="Float64"  Name="f_1195"  NumberOfComponents="3" format="ascii">1.5539439205581330e+03 1.2757437641526118e-01 -6.7164211975187099e-02  1.5540792418054016e+03 4.0853987459404334e-01 -3.1580441175986268e-01  1.5539604326896865e+03 3.3206868620628843e-01 -1.4606558408193018e-01  1.5538890000757126e+03 -1.7562725927584141e-01 3.5122917043386395e-02  1.5533910448014267e+03 -2.6539511529441673e-01 1.2114445937026637e-02  1.5525039503334951e+03 -2.2143346757028854e-02 9.1056420261711526e-02  1.5518151267053524e+03 1.2788705682641960e-01 4.1990136969635829e-03  1.5519284548006383e+03 -4.8438983699436229e-02 2.4220373388254671e-02  1.5511408905910971e+03 3.2351534185985263e-02 8.5166567745932134e-02  1.5500587013273459e+03 -4.2167025434619636e-02 -7.2044840896159559e-03  1.5490450590384787e+03 -3.8443973359045217e-02 1.0111369857481613e-01  1.5477579556974886e+03 -4.4578010459125982e-02 2.2578656744128200e-01  1.5459558477119137e+03 -6.9632965805356162e-02 2.3322592287504618e-01  1.5445249404017654e+03 -1.2236771478440216e-01 1.4663227237626450e-01  1.5434277168764165e+03 -7.0975082383610347e-02 1.2943617814543465e-01  1.5424531396354687e+03 -4.5223474500479650e-02 9.6350951748533767e-02  1.5418103898037496e+03 -3.2178406157624996e-02 3.2859283606506626e-02  1.5412421868296822e+03 4.2326173945540964e-04 3.1956978971828864e-02  1.5405981332390404e+03 -3.4392640764724109e-03 3.2911218892993227e-02  1.5400488699330890e+03 -1.9029374556247484e-02 5.0439780866673778e-02  1.5393539448862082e+03 -7.6533751132749376e-03 8.3158862635074493e-02  1.5387572941480300e+03 -1.3202556586985227e-02 3.6437135046463752e-02  1.5384321894054863e+03 -2.1842541156207516e-02 4.6495001328395791e-02  1.5375349504380324e+03 -2.3726802277777546e-02 1.5049185717856223e-01  1.5363750327545381e+03 -4.2657106574865780e-02 1.0471736278440136e-01  1.5355646027683333e+03 -3.3923016042270111e-02 5.1544642189998213e-02  1.5347002528953496e+03 -1.7270436358687240e-02 9.5047653984538447e-02  1.5337822426966175e+03 -2.6881094469117055e-02 9.6860053818907416e-02  1.5327448663510138e+03 -2.9471815522618013e-02 1.2731609514919209e-01  1.5315161715342551e+03 -3.9809591479795008e-02 1.3360845103340654e-01  1.5305063389034729e+03 -4.2607914796559981e-02 8.0607866514879417e-02  1.5295174411336234e+03 -2.0181599239092261e-02 1.0283670928562746e-01  1.5283545511646525e+03 -2.0674563758491152e-02 1.2881159003329942e-01  1.5271053414943492e+03 -2.7696135220757940e-02 1.4117460174946697e-01  1.5256648398023010e+03 -3.5079367843812999e-02 1.6459781097482210e-01  1.5243112262550205e+03 -5.3285911752169082e-02 1.2509545111180403e-01  1.5231228818792565e+03 -4.2998164227167950e-02 1.1470798578071729e-01  1.5216633776083022e+03 -2.6263621957372158e-02 1.7429228547353651e-01  1.5199703565459984e+03 -3.7438452674176927e-02 1.7969602673296312e-01  1.5185071834969863e+03 -5.0352537299069071e-02 1.2573303537482988e-01  1.5173038265650025e+03 -4.3276635463546258e-02 1.1295921196360335e-01  1.5159575077700536e+03 -3.1177676265174620e-02 1.5416341432985470e-01  1.5143580770179306e+03 -3.5679716723316997e-02 1.7979178091844061e-01  1.5126404345903250e+03 -4.0978616338484063e-02 1.8548424810482234e-01  1.5108433753189431e+03 -3.9211898469929271e-02 1.8961402280282061e-01  1.5091357933442280e+03 -4.8283472898314063e-02 1.7144656551074650e-01  1.5076342919228712e+03 -5.4744698358502819e-02 1.5416968001314821e-01  1.5061967848745953e+03 -4.5645932644494520e-02 1.5160886893033876e-01  1.5047430886317954e+03 -3.4728627136551969e-02 1.4088770624866848e-01  1.5031916721765201e+03 -3.0336220421789069e-02 1.5840336979705508e-01  1.5012777483594514e+03 -4.2630020056580328e-02 2.2764234919606824e-01  1.4989842078142608e+03 -7.1235180858226901e-02 2.6669235596276430e-01  1.4966247170428294e+03 -7.6414754415957742e-02 2.4447884033817879e-01  1.4942652977183322e+03 -4.9427224007983481e-02 2.3671629993200477e-01  1.4919129928965669e+03 -4.8724662043705728e-02 2.3505226015312272e-01  1.4898349152434173e+03 -7.7151572975866306e-02 2.0855971577376189e-01  1.4879455903178655e+03 -7.4289235236327050e-02 2.1505109530530503e-01  1.4859757277794467e+03 -4.3795890190897878e-02 2.1278146337992782e-01  1.4842314725919925e+03 -2.0905423943856864e-02 1.3564274162450413e-01  1.4829526556670132e+03 -2.2916410467660572e-02 9.8880802218281411e-02  1.4818172167064297e+03 -6.6395479198195620e-02 1.4030162823190370e-01  1.4807093869441164e+03 -7.6541249973041597e-02 1.3495269387643891e-01  1.4794847591128464e+03 2.0235115461458484e-02 1.1411962972701205e-01  1.4778574111631892e+03 7.2859702052621406e-02 1.3156616160142345e-01  1.4764254577405989e+03 -4.1051631261457368e-02 1.1994097965003057e-01  1.4756059830433378e+03 -1.6410028102978366e-01 1.4040865474317346e-01  1.4747285987364094e+03 -1.4510389571114662e-01 1.8866658154032942e-01  1.4734988384810640e+03 -8.3104467941107327e-04 1.2372941908607864e-01  1.4722381882180323e+03 1.3299641612195304e-01 5.0084898123162547e-03  1.4712293685463617e+03 7.7106727986863494e-02 8.9166960759171163e-03  1.4703064709657026e+03 -1.3961605737306715e-01 1.9994997701790040e-01  1.4690479146136558e+03 -2.4324141881137995e-01 3.0673615990231007e-01  1.4679178133032608e+03 -2.3986944954795145e-02 5.8385885153231967e-02  1.4671888952760476e+03 2.8015146965305815e-01 -1.4137013000395129e-01  1.4663251519603450e+03 1.7842024340457055e-01 2.0014527891897872e-03  1.4657244692905460e+03 -2.1337076202908745e-01 1.6841164494980931e-01  1.4651740699193076e+03 -3.4237721940067167e-01 2.7551041527319858e-01  1.4640737709360938e+03 -1.4515828213237297e-01 1.9240248148046052e-01  1.4632994915917811e+03 1.6589117245627277e-01 -1.1768374097358035e-01  1.4625424415891005e+03 2.9064132883424376e-01 -1.0439116178409041e-01  1.4613213081039878e+03 -4.7209976895468762e-02 1.9731924902522904e-01  1.4601008966566872e+03 -3.7573856641356529e-01 3.6305402592018754e-01  1.4586082943627950e+03 -1.9867440819576493e-01 2.8952983254679304e-01  1.4568140745326314e+03 1.5798820438580044e-01 4.7313760514125822e-02  1.4554227304662966e+03 2.5714474613973287e-01 -7.1476417197158221e-02  1.4543372520967016e+03 5.5778320455786339e-02 8.0485722776546476e-02  1.4531991737926714e+03 -2.5442653170833013e-01 2.5406694076310338e-01  1.4522961070269628e+03 -2.6500214055355870e-01 2.0159858379478091e-01  1.4514285594742000e+03 5.4730250787004379e-02 2.5212891558666978e-02  1.4507708276505898e+03 2.0093919557280668e-01 -5.9338027056041666e-02  1.4500909461984370e+03 2.4080261461201888e-02 -1.0552535298290807e-02  1.4501730048703591e+03 -2.0251045189020067e-01 9.2754097580857731e-02  1.4494395532975229e+03 -5.0642025506686561e-02 1.8277834304125662e-01  1.4486473056132697e+03 -7.4651640975096295e-03 4.1857354734301175e-02  1.4486697714066966e+03 3.3452255164463672e-02 -8.8140241942795586e-02  1.4485482929670502e+03 7.3261599508546091e-02 1.5989928625096314e-01  1.4475768710430871e+03 -4.2569740925014178e-02 1.5347777691271550e-01  1.4475892914532069e+03 -1.9132291992772646e-01 2.0440006743733995e-02  1.4477830496452880e+03 -2.5285038315062358e-01 9.1552296947860573e-02  1.4479858686863415e+03 -1.7312841468509027e-01 -1.3847494323947909e-01  1.4478120015230504e+03 1.0303751539105462e-01 2.4215108013016746e-02  1.5541345702573115e+03 1.5198596035940207e-02 -3.5158961042465978e-02  1.5541737399550429e+03 2.3602426020263714e-01 -7.6209871056474379e-02  1.5538034515238080e+03 1.9968717977500408e-01 -1.6196655415201866e-01  1.5537405343575226e+03 -8.1523767473776279e-02 -6.3696076971809082e-02  1.5534521772826627e+03 -1.4252929472967307e-01 -1.4956258162474545e-01  1.5525536060377053e+03 2.6024345589450562e-02 -3.5302185850598841e-02  1.5518926420258249e+03 7.7121087413424633e-02 -4.8971779723859486e-02  1.5517984525586130e+03 7.0569601342603677e-02 -2.8236660992777468e-02  1.5511983459228948e+03 -1.3926191641780430e-01 -1.4046461007252015e-01  1.5500687312206394e+03 -4.6476507040080162e-02 -1.7233423627019681e-01  1.5490245813334425e+03 -4.4901020488029048e-02 -9.1585635665489093e-02  1.5477199900586140e+03 -8.5577755431471281e-02 -1.1348806702182493e-01  1.5459873213832443e+03 -1.3636246323874138e-01 -1.7098070236405663e-01  1.5445087524604658e+03 -1.0557507612585519e-01 -9.5542681389977527e-02  1.5434263400079096e+03 -1.0204847422185784e-01 -9.0070256541836688e-02  1.5424799990146573e+03 -9.2897491646466365e-02 -8.4681747300598229e-02  1.5418083328070238e+03 -7.0823116143172368e-02 -7.7729507448043772e-02  1.5412454595318345e+03 -8.0071066573042388e-02 -1.1026896318474437e-01  1.5406104346574798e+03 -6.8640221697011949e-02 -9.8292546590158583e-02  1.5400263351573249e+03 -4.4461259182694682e-02 -7.1173349030766192e-02  1.5393639158046487e+03 -4.6732706677112823e-02 -5.0224705810587217e-02  1.5387815046390849e+03 -1.6001102576029446e-02 -3.8090362043181711e-02  1.5383895728197483e+03 -1.5117923979770027e-02 -8.0011639759804271e-02  1.5375382500032404e+03 -7.3368298976118296e-02 -1.2531160345434078e-01  1.5364004000177290e+03 -8.0033741941733405e-02 -1.0759018196487570e-01  1.5355466717593551e+03 -5.5242393626435078e-02 -8.6015782839744023e-02  1.5347120890670185e+03 -4.9066948604997836e-02 -1.0779747276239683e-01  1.5337743616812027e+03 -6.2777414627720463e-02 -1.1085912688245850e-01  1.5327244627381685e+03 -1.0932848993770544e-01 -1.0268061131407379e-01  1.5315406175590410e+03 -1.1444963847564862e-01 -1.0593483833138272e-01  1.5305053975992494e+03 -6.6657110052474766e-02 -9.4419027143676337e-02  1.5295153366114835e+03 -4.8761800647597942e-02 -9.8220484278217168e-02  1.5283618743986860e+03 -5.4047780866187591e-02 -1.1987150075055711e-01  1.5270838895585973e+03 -9.0881483883872724e-02 -1.2371352410621195e-01  1.5256700604369435e+03 -1.3075216831877862e-01 -1.2346966787749872e-01  1.5243271592068520e+03 -1.0319246823517315e-01 -1.3319776946715609e-01  1.5231114535579659e+03 -7.4582300126791762e-02 -1.4483038178901375e-01  1.5216590191558330e+03 -8.9773175045063824e-02 -1.5095538395501243e-01  1.5199796919750847e+03 -1.0088283816851629e-01 -1.4181027160527074e-01  1.5185107069372882e+03 -9.1476363787384177e-02 -1.3006562183511183e-01  1.5172953388427286e+03 -8.2797657218168882e-02 -1.3427917811427531e-01  1.5159539033496771e+03 -9.7977376902049662e-02 -1.4003982819393820e-01  1.5143625650447361e+03 -1.1311718163385052e-01 -1.4539403938913092e-01  1.5126383166796145e+03 -1.1054867332983233e-01 -1.5689684872606291e-01  1.5108425841537571e+03 -1.1615437602981586e-01 -1.4967416684110338e-01  1.5091362639581123e+03 -1.2203129957911582e-01 -1.2729243889199021e-01  1.5076297940153358e+03 -1.1549289133957362e-01 -1.2111910512440513e-01  1.5062017643336944e+03 -1.0948797009490878e-01 -1.3263422416539480e-01  1.5047553038854871e+03 -9.9226368388459510e-02 -1.5678725096660986e-01  1.5031854492011355e+03 -9.7897417704746137e-02 -1.8643896455032560e-01  1.5012612205355615e+03 -1.3458048444643123e-01 -2.0748820520657185e-01  1.4989864997533100e+03 -1.7254404412493698e-01 -2.2269673940594528e-01  1.4966297485944660e+03 -1.6953109681820067e-01 -2.2440980916751133e-01  1.4942635668979631e+03 -1.5655418724001835e-01 -2.0199198986292916e-01  1.4919231914506613e+03 -1.3961518088132829e-01 -1.8265359350808810e-01  1.4898297144457188e+03 -1.1376795044641308e-01 -1.8068192224911866e-01  1.4879213408647272e+03 -1.4034370970568910e-01 -1.7041870535471057e-01  1.4859909332042901e+03 -1.8340820576206360e-01 -1.4141398479290024e-01  1.4842622006593324e+03 -1.3536008596412524e-01 -1.1567101318417848e-01  1.4829365144632218e+03 -6.6870751939269613e-02 -1.0869778369006744e-01  1.4818022353399870e+03 -6.5196165172628648e-02 -1.0530192036240039e-01  1.4807209828249911e+03 -7.4928559448342438e-02 -1.1203217305823021e-01  1.4794911885172774e+03 -9.6654804980656400e-02 -1.4027083296266551e-01  1.4778766682128442e+03 -1.1092575855018327e-01 -1.3000868280859962e-01  1.4764123776030201e+03 -5.4792909551134548e-02 -7.4475768866561529e-02  1.4755498316971352e+03 -2.9303375967731624e-02 -6.1981785413793275e-02  1.4747284654562388e+03 -8.7206462652573077e-02 -9.2075354431279621e-02  1.4735519090444120e+03 -1.3836951089673383e-01 -1.1168638123253272e-01  1.4722968121371127e+03 -1.1038079880551983e-01 -1.3240850478783531e-01  1.4712126624875589e+03 -2.5821694587747053e-03 -1.3395606949763691e-01  1.4701836533316830e+03 -7.1212476340864472e-03 -8.4176464326474187e-02  1.4690383827496109e+03 -1.5120874310384980e-01 -5.5799832623631820e-02  1.4680471487821685e+03 -1.5937476722746696e-01 -8.2717074233565460e-02  1.4672340034049203e+03 -4.8733826390613091e-02 -1.0728892836015395e-01  1.4662908727928677e+03 2.3925868907355728e-02 -1.0348792171894441e-01  1.4656132406522170e+03 3.5112480151465945e-02 -4.7218340833495180e-02  1.4650879729323749e+03 -8.5050005250711713e-02 -1.0212908496219121e-02  1.4642021047509438e+03 -1.7451007680525196e-01 -7.3998816873775172e-02  1.4634150053378219e+03 -8.1811818017982693e-02 -1.3227416291583766e-01  1.4625203089877120e+03 1.1363079942992928e-02 -1.4730655244866073e-01  1.4612208409540115e+03 1.8164169133397176e-02 -1.3276272885403884e-01  1.4599945857209457e+03 -9.1655334701543828e-02 -7.8416760539166380e-02  1.4586647859027653e+03 -2.4792815700402637e-01 -1.0282227129860391e-01  1.4569705210699858e+03 -1.8978404649003966e-01 -1.5472877884713507e-01  1.4554425144823983e+03 -1.1149213213585783e-03 -1.2955448484807369e-01  1.4542257780436796e+03 1.5901694935212412e-02 -1.0475996028383695e-01  1.4531283494950383e+03 -6.6104200680742617e-02 -8.6452648786292580e-02  1.4523081048253257e+03 -1.1454156361895204e-01 -6.7348783936433149e-02  1.4515297742277369e+03 -1.3055396131569152e-01 -5.7280581756006060e-02  1.4507919594393759e+03 -4.8944771919648911e-02 -5.8151030795315355e-02  1.4500736143168497e+03 5.8504062406116629e-02 -9.8885542485221092e-02  1.4500595002708562e+03 -2.3944651664570995e-03 -4.9349411577425770e-02  1.4494646161447836e+03 -1.1740122382456850e-01 -1.8829250501032482e-02  1.4487410011994812e+03 -6.2926069485655850e-02 -2.7195899947667470e-03  1.4486464135659539e+03 3.9003434094131040e-02 4.0164689001903189e-02  1.4484754093241806e+03 -9.1006910148036801e-02 -6.7068524226911785e-02  1.4476361523285532e+03 -1.1843228442365851e-01 -1.7862005918839810e-03  1.4475425995962280e+03 -3.7281159996376829e-02 1.1592301032286449e-04  1.4477048940695624e+03 3.7279659885460649e-02 1.1437600569218459e-01  1.4480621904254156e+03 -3.8874130395057591e-02 -2.5606114278128717e-01  1.4478931815305259e+03 -6.2224163794185959e-02 1.4799419113931020e-01  1.5542318334115423e+03 -2.5613843295513576e-02 -1.0786164081851173e-01  1.5541214659869647e+03 -1.1313257217400484e-01 -2.5663960908522222e-02  1.5537774664675069e+03 -3.8034726985835798e-01 8.2760711860718664e-02  1.5537801320861270e+03 2.0924558876086179e-02 -2.3676061764885317e-01  1.5533141774447031e+03 7.1130777435033626e-02 -9.9712644926030686e-02  1.5526839729016938e+03 -2.0154202446309080e-01 -2.0770399950321070e-01  1.5519921870019712e+03 6.9478389719140485e-02 -1.9564547940880692e-01  1.5516149150012600e+03 1.0676874369054813e-01 -1.0499390314952074e-01  1.5511595956222204e+03 -1.9195789649293921e-01 9.0197988683327901e-02  1.5501255697289298e+03 -1.1059580538566023e-01 1.8413719916260906e-02  1.5489642476492756e+03 -8.9544555607434642e-02 6.4611291191674275e-02  1.5476685122052295e+03 -2.7205080273016602e-01 5.5481788750452080e-02  1.5460112398209355e+03 -3.3512883146984462e-01 8.4048473451617714e-02  1.5445398974718285e+03 -2.2282763046581999e-01 5.2247525023382549e-02  1.5434285407552948e+03 -1.8828949759403660e-01 4.3174260364401147e-02  1.5424968329715000e+03 -1.9998297671949436e-01 4.8506333258995435e-02  1.5418006119466068e+03 -1.8350135980255644e-01 3.3895061116935667e-02  1.5412371627994089e+03 -2.1430267475604192e-01 4.7735314646422028e-02  1.5406417908976739e+03 -1.9076572669969136e-01 3.7238973066086867e-02  1.5400311407924514e+03 -1.2420527503107748e-01 2.1910152092838302e-02  1.5393865446485424e+03 -1.1989035610579039e-01 3.7665483988806245e-02  1.5388119184179877e+03 -6.1478461841849255e-02 3.4629857893656310e-03  1.5383345299644204e+03 -4.4378813047175225e-02 -7.5429125391634775e-03  1.5374971203711236e+03 -1.7714470628126042e-01 5.8550241570779857e-02  1.5364251861119142e+03 -2.1063183000605962e-01 5.6277428562125476e-02  1.5355601950921355e+03 -1.3934353552929007e-01 1.4496437871158056e-02  1.5347091890587292e+03 -1.3794386503868772e-01 2.4232433199721608e-02  1.5337370783281149e+03 -1.7858897592240872e-01 4.5636753959186385e-02  1.5326903555372523e+03 -2.6079911918240434e-01 7.7403672675469090e-02  1.5315772884747596e+03 -2.7955841657459440e-01 7.7907193597065105e-02  1.5305368914208000e+03 -1.7601177129989501e-01 3.9614309865738530e-02  1.5295154838802525e+03 -1.3322229283419049e-01 3.7930820086336074e-02  1.5283399671778898e+03 -1.6310863662608016e-01 5.0898914625877270e-02  1.5270330614398049e+03 -2.3681938311675413e-01 7.3703711761775884e-02  1.5256703228697088e+03 -3.1549092199648476e-01 8.9887005472310599e-02  1.5243650642060977e+03 -2.6825975280748249e-01 5.5156962434130388e-02  1.5231061092729831e+03 -2.0340153128650337e-01 4.1658990096153363e-02  1.5216341929564182e+03 -2.4135567269406294e-01 7.7413521637502980e-02  1.5199830869156212e+03 -2.8391024373121937e-01 9.0768640640054257e-02  1.5185339836094884e+03 -2.5646618121713238e-01 6.1780703069926862e-02  1.5172926912447820e+03 -2.1785184452536926e-01 4.7223208325506368e-02  1.5159293442952071e+03 -2.4571232906093560e-01 7.2433874840751505e-02  1.5143536633027752e+03 -2.8826940690634340e-01 8.5788609078056147e-02  1.5126320074306243e+03 -2.9926283312676699e-01 8.7426293074046507e-02  1.5108375215845135e+03 -3.1821330316658131e-01 1.0400689471908804e-01  1.5091491214337857e+03 -3.1728211314707050e-01 1.0061388422056938e-01  1.5076402208438180e+03 -2.8349096644840793e-01 8.0329071350673201e-02  1.5062042486255650e+03 -2.6864687385972408e-01 7.0405403814620904e-02  1.5047567839071346e+03 -2.6619946727179000e-01 6.0201469993660627e-02  1.5031566896862932e+03 -2.8070437063408815e-01 6.8552655871456106e-02  1.5012111598810493e+03 -3.5938921372555555e-01 1.0897317165893829e-01  1.4989733022519476e+03 -4.3775059319227039e-01 1.2793238948919017e-01  1.4966398154563881e+03 -4.3397023778804239e-01 1.1653679865541673e-01  1.4942697082530378e+03 -4.1335190442836550e-01 1.2234725674207983e-01  1.4919563762822831e+03 -3.8799201801197913e-01 1.1648115179068554e-01  1.4898450915843828e+03 -3.2376246043406637e-01 8.8261247097755444e-02  1.4878799260410080e+03 -3.4255127151300835e-01 1.0704820133781573e-01  1.4859959710516582e+03 -4.2038685105958024e-01 1.3085731313830234e-01  1.4843278267570363e+03 -3.5715356700955331e-01 8.9346835931501140e-02  1.4829696747576697e+03 -2.2892351970365937e-01 5.5340820339659938e-02  1.4818205779769912e+03 -1.7191731368940921e-01 4.9793607189760086e-02  1.4807055420131053e+03 -1.5184964494339884e-01 3.3621115655891515e-02  1.4794202802212171e+03 -2.4965228732310094e-01 7.3509165625194273e-02  1.4778945178667218e+03 -3.6832791945420051e-01 1.2784893812641568e-01  1.4765088796737029e+03 -2.3088056145314673e-01 7.1193519992754695e-02  1.4755704262879442e+03 -3.1385833161719529e-02 1.2406070031879195e-04  1.4746644811681906e+03 -6.9031016818038499e-02 2.5144759279248478e-02  1.4734772728759308e+03 -2.6689414128807121e-01 8.2712346586234511e-02  1.4723325778477611e+03 -3.7900251453939382e-01 8.6734390976492423e-02  1.4713019284592567e+03 -2.2046764697048921e-01 4.0029479741487045e-02  1.4701530468968219e+03 -6.0948468913795691e-02 4.4960562277260752e-02  1.4690011758537914e+03 -1.4871873758106030e-01 6.6820003252031995e-02  1.4680445756595620e+03 -2.4249899741095843e-01 2.6049805295479397e-02  1.4672135577478928e+03 -3.1215889849219147e-01 5.0323935936671185e-02  1.4663909520757948e+03 -2.7709816768745738e-01 8.8927069688685190e-02  1.4656788494627219e+03 3.0301960426300310e-02 1.2613728434134884e-02  1.4649942739568053e+03 1.0232771591138157e-01 4.5586779775691980e-03  1.464