<?xml version="1.0"?>
<VTKFile type="UnstructuredGrid"  version="0.1"  >
<UnstructuredGrid>
<Piece  NumberOfPoints="7777" NumberOfCells="36000">
<Points>
<DataArray  type="Float64"  NumberOfComponents="3"  format="ascii">0 0 0  2 0 0  4 0 0  6 0 0  8 0 0  10 0 0  12 0 0  14 0 0  16 0 0  18 0 0  20 0 0  22 0 0  24 0 0  26 0 0  28 0 0  30 0 0  32 0 0  34 0 0  36 0 0  38 0 0  40 0 0  42 0 0  44 0 0  46 0 0  48 0 0  50 0 0  52 0 0  54 0 0  56 0 0  58 0 0  60 0 0  62 0 0  64 0 0  66 0 0  68 0 0  70 0 0  72 0 0  74 0 0  76 0 0  78 0 0  80 0 0  82 0 0  84 0 0  86 0 0  88 0 0  90 0 0  92 0 0  94 0 0  96 0 0  98 0 0  100 0 0  102 0 0  104 0 0  106 0 0  108 0 0  110 0 0  112 0 0  114 0 0  116 0 0  118 0 0  120 0 0  122 0 0  124 0 0  126 0 0  128 0 0  130 0 0  132 0 0  134 0 0  136 0 0  138 0 0  140 0 0  142 0 0  144 0 0  146 0 0  148 0 0  150 0 0  152 0 0  154 0 0  156 0 0  158 0 0  160 0 0  162 0 0  164 0 0  166 0 0  168 0 0  170 0 0  172 0 0  174 0 0  176 0 0  178 0 0  180 0 0  182 0 0  184 0 0  186 0 0  188 0 0  190 0 0  192 0 0  194 0 0  196 0 0  198 0 0  200 0 0  0 1 0  2 1 0  4 1 0  6 1 0  8 1 0  10 1 0  12 1 0  14 1 0  16 1 0  18 1 0  20 1 0  22 1 0  24 1 0  26 1 0  28 1 0  30 1 0  32 1 0  34 1 0  36 1 0  38 1 0  40 1 0  42 1 0  44 1 0  46 1 0  48 1 0  50 1 0  52 1 0  54 1 0  56 1 0  58 1 0  60 1 0  62 1 0  64 1 0  66 1 0  68 1 0  70 1 0  72 1 0  74 1 0  76 1 0  78 1 0  80 1 0  82 1 0  84 1 0  86 1 0  88 1 0  90 1 0  92 1 0  94 1 0  96 1 0  98 1 0  100 1 0  102 1 0  104 1 0  106 1 0  108 1 0  110 1 0  112 1 0  114 1 0  116 1 0  118 1 0  120 1 0  122 1 0  124 1 0  126 1 0  128 1 0  130 1 0  132 1 0  134 1 0  136 1 0  138 1 0  140 1 0  142 1 0  144 1 0  146 1 0  148 1 0  150 1 0  152 1 0  154 1 0  156 1 0  158 1 0  160 1 0  162 1 0  164 1 0  166 1 0  168 1 0  170 1 0  172 1 0  174 1 0  176 1 0  178 1 0  180 1 0  182 1 0  184 1 0  186 1 0  188 1 0  190 1 0  192 1 0  194 1 0  196 1 0  198 1 0  200 1 0  0 2 0  2 2 0  4 2 0  6 2 0  8 2 0  10 2 0  12 2 0  14 2 0  16 2 0  18 2 0  20 2 0  22 2 0  24 2 0  26 2 0  28 2 0  30 2 0  32 2 0  34 2 0  36 2 0  38 2 0  40 2 0  42 2 0  44 2 0  46 2 0  48 2 0  50 2 0  52 2 0  54 2 0  56 2 0  58 2 0  60 2 0  62 2 0  64 2 0  66 2 0  68 2 0  70 2 0  72 2 0  74 2 0  76 2 0  78 2 0  80 2 0  82 2 0  84 2 0  86 2 0  88 2 0  90 2 0  92 2 0  94 2 0  96 2 0  98 2 0  100 2 0  102 2 0  104 2 0  106 2 0  108 2 0  110 2 0  112 2 0  114 2 0  116 2 0  118 2 0  120 2 0  122 2 0  124 2 0  126 2 0  128 2 0  130 2 0  132 2 0  134 2 0  136 2 0  138 2 0  140 2 0  142 2 0  144 2 0  146 2 0  148 2 0  150 2 0  152 2 0  154 2 0  156 2 0  158 2 0  160 2 0  162 2 0  164 2 0  166 2 0  168 2 0  170 2 0  172 2 0  174 2 0  176 2 0  178 2 0  180 2 0  182 2 0  184 2 0  186 2 0  188 2 0  190 2 0  192 2 0  194 2 0  196 2 0  198 2 0  200 2 0  0 3 0  2 3 0  4 3 0  6 3 0  8 3 0  10 3 0  12 3 0  14 3 0  16 3 0  18 3 0  20 3 0  22 3 0  24 3 0  26 3 0  28 3 0  30 3 0  32 3 0  34 3 0  36 3 0  38 3 0  40 3 0  42 3 0  44 3 0  46 3 0  48 3 0  50 3 0  52 3 0  54 3 0  56 3 0  58 3 0  60 3 0  62 3 0  64 3 0  66 3 0  68 3 0  70 3 0  72 3 0  74 3 0  76 3 0  78 3 0  80 3 0  82 3 0  84 3 0  86 3 0  88 3 0  90 3 0  92 3 0  94 3 0  96 3 0  98 3 0  100 3 0  102 3 0  104 3 0  106 3 0  108 3 0  110 3 0  112 3 0  114 3 0  116 3 0  118 3 0  120 3 0  122 3 0  124 3 0  126 3 0  128 3 0  130 3 0  132 3 0  134 3 0  136 3 0  138 3 0  140 3 0  142 3 0  144 3 0  146 3 0  148 3 0  150 3 0  152 3 0  154 3 0  156 3 0  158 3 0  160 3 0  162 3 0  164 3 0  166 3 0  168 3 0  170 3 0  172 3 0  174 3 0  176 3 0  178 3 0  180 3 0  182 3 0  184 3 0  186 3 0  188 3 0  190 3 0  192 3 0  194 3 0  196 3 0  198 3 0  200 3 0  0 4 0  2 4 0  4 4 0  6 4 0  8 4 0  10 4 0  12 4 0  14 4 0  16 4 0  18 4 0  20 4 0  22 4 0  24 4 0  26 4 0  28 4 0  30 4 0  32 4 0  34 4 0  36 4 0  38 4 0  40 4 0  42 4 0  44 4 0  46 4 0  48 4 0  50 4 0  52 4 0  54 4 0  56 4 0  58 4 0  60 4 0  62 4 0  64 4 0  66 4 0  68 4 0  70 4 0  72 4 0  74 4 0  76 4 0  78 4 0  80 4 0  82 4 0  84 4 0  86 4 0  88 4 0  90 4 0  92 4 0  94 4 0  96 4 0  98 4 0  100 4 0  102 4 0  104 4 0  106 4 0  108 4 0  110 4 0  112 4 0  114 4 0  116 4 0  118 4 0  120 4 0  122 4 0  124 4 0  126 4 0  128 4 0  130 4 0  132 4 0  134 4 0  136 4 0  138 4 0  140 4 0  142 4 0  144 4 0  146 4 0  148 4 0  150 4 0  152 4 0  154 4 0  156 4 0  158 4 0  160 4 0  162 4 0  164 4 0  166 4 0  168 4 0  170 4 0  172 4 0  174 4 0  176 4 0  178 4 0  180 4 0  182 4 0  184 4 0  186 4 0  188 4 0  190 4 0  192 4 0  194 4 0  196 4 0  198 4 0  200 4 0  0 5 0  2 5 0  4 5 0  6 5 0  8 5 0  10 5 0  12 5 0  14 5 0  16 5 0  18 5 0  20 5 0  22 5 0  24 5 0  26 5 0  28 5 0  30 5 0  32 5 0  34 5 0  36 5 0  38 5 0  40 5 0  42 5 0  44 5 0  46 5 0  48 5 0  50 5 0  52 5 0  54 5 0  56 5 0  58 5 0  60 5 0  62 5 0  64 5 0  66 5 0  68 5 0  70 5 0  72 5 0  74 5 0  76 5 0  78 5 0  80 5 0  82 5 0  84 5 0  86 5 0  88 5 0  90 5 0  92 5 0  94 5 0  96 5 0  98 5 0  100 5 0  102 5 0  104 5 0  106 5 0  108 5 0  110 5 0  112 5 0  114 5 0  116 5 0  118 5 0  120 5 0  122 5 0  124 5 0  126 5 0  128 5 0  130 5 0  132 5 0  134 5 0  136 5 0  138 5 0  140 5 0  142 5 0  144 5 0  146 5 0  148 5 0  150 5 0  152 5 0  154 5 0  156 5 0  158 5 0  160 5 0  162 5 0  164 5 0  166 5 0  168 5 0  170 5 0  172 5 0  174 5 0  176 5 0  178 5 0  180 5 0  182 5 0  184 5 0  186 5 0  188 5 0  190 5 0  192 5 0  194 5 0  196 5 0  198 5 0  200 5 0  0 6 0  2 6 0  4 6 0  6 6 0  8 6 0  10 6 0  12 6 0  14 6 0  16 6 0  18 6 0  20 6 0  22 6 0  24 6 0  26 6 0  28 6 0  30 6 0  32 6 0  34 6 0  36 6 0  38 6 0  40 6 0  42 6 0  44 6 0  46 6 0  48 6 0  50 6 0  52 6 0  54 6 0  56 6 0  58 6 0  60 6 0  62 6 0  64 6 0  66 6 0  68 6 0  70 6 0  72 6 0  74 6 0  76 6 0  78 6 0  80 6 0  82 6 0  84 6 0  86 6 0  88 6 0  90 6 0  92 6 0  94 6 0  96 6 0  98 6 0  100 6 0  102 6 0  104 6 0  106 6 0  108 6 0  110 6 0  112 6 0  114 6 0  116 6 0  118 6 0  120 6 0  122 6 0  124 6 0  126 6 0  128 6 0  130 6 0  132 6 0  134 6 0  136 6 0  138 6 0  140 6 0  142 6 0  144 6 0  146 6 0  148 6 0  150 6 0  152 6 0  154 6 0  156 6 0  158 6 0  160 6 0  162 6 0  164 6 0  166 6 0  168 6 0  170 6 0  172 6 0  174 6 0  176 6 0  178 6 0  180 6 0  182 6 0  184 6 0  186 6 0  188 6 0  190 6 0  192 6 0  194 6 0  196 6 0  198 6 0  200 6 0  0 0 1  2 0 1  4 0 1  6 0 1  8 0 1  10 0 1  12 0 1  14 0 1  16 0 1  18 0 1  20 0 1  22 0 1  24 0 1  26 0 1  28 0 1  30 0 1  32 0 1  34 0 1  36 0 1  38 0 1  40 0 1  42 0 1  44 0 1  46 0 1  48 0 1  50 0 1  52 0 1  54 0 1  56 0 1  58 0 1  60 0 1  62 0 1  64 0 1  66 0 1  68 0 1  70 0 1  72 0 1  74 0 1  76 0 1  78 0 1  80 0 1  82 0 1  84 0 1  86 0 1  88 0 1  90 0 1  92 0 1  94 0 1  96 0 1  98 0 1  100 0 1  102 0 1  104 0 1  106 0 1  108 0 1  110 0 1  112 0 1  114 0 1  116 0 1  118 0 1  120 0 1  122 0 1  124 0 1  126 0 1  128 0 1  130 0 1  132 0 1  134 0 1  136 0 1  138 0 1  140 0 1  142 0 1  144 0 1  146 0 1  148 0 1  150 0 1  152 0 1  154 0 1  156 0 1  158 0 1  160 0 1  162 0 1  164 0 1  166 0 1  168 0 1  170 0 1  172 0 1  174 0 1  176 0 1  178 0 1  180 0 1  182 0 1  184 0 1  186 0 1  188 0 1  190 0 1  192 0 1  194 0 1  196 0 1  198 0 1  200 0 1  0 1 1  2 1 1  4 1 1  6 1 1  8 1 1  10 1 1  12 1 1  14 1 1  16 1 1  18 1 1  20 1 1  22 1 1  24 1 1  26 1 1  28 1 1  30 1 1  32 1 1  34 1 1  36 1 1  38 1 1  40 1 1  42 1 1  44 1 1  46 1 1  48 1 1  50 1 1  52 1 1  54 1 1  56 1 1  58 1 1  60 1 1  62 1 1  64 1 1  66 1 1  68 1 1  70 1 1  72 1 1  74 1 1  76 1 1  78 1 1  80 1 1  82 1 1  84 1 1  86 1 1  88 1 1  90 1 1  92 1 1  94 1 1  96 1 1  98 1 1  100 1 1  102 1 1  104 1 1  106 1 1  108 1 1  110 1 1  112 1 1  114 1 1  116 1 1  118 1 1  120 1 1  122 1 1  124 1 1  126 1 1  128 1 1  130 1 1  132 1 1  134 1 1  136 1 1  138 1 1  140 1 1  142 1 1  144 1 1  146 1 1  148 1 1  150 1 1  152 1 1  154 1 1  156 1 1  158 1 1  160 1 1  162 1 1  164 1 1  166 1 1  168 1 1  170 1 1  172 1 1  174 1 1  176 1 1  178 1 1  180 1 1  182 1 1  184 1 1  186 1 1  188 1 1  190 1 1  192 1 1  194 1 1  196 1 1  198 1 1  200 1 1  0 2 1  2 2 1  4 2 1  6 2 1  8 2 1  10 2 1  12 2 1  14 2 1  16 2 1  18 2 1  20 2 1  22 2 1  24 2 1  26 2 1  28 2 1  30 2 1  32 2 1  34 2 1  36 2 1  38 2 1  40 2 1  42 2 1  44 2 1  46 2 1  48 2 1  50 2 1  52 2 1  54 2 1  56 2 1  58 2 1  60 2 1  62 2 1  64 2 1  66 2 1  68 2 1  70 2 1  72 2 1  74 2 1  76 2 1  78 2 1  80 2 1  82 2 1  84 2 1  86 2 1  88 2 1  90 2 1  92 2 1  94 2 1  96 2 1  98 2 1  100 2 1  102 2 1  104 2 1  106 2 1  108 2 1  110 2 1  112 2 1  114 2 1  116 2 1  118 2 1  120 2 1  122 2 1  124 2 1  126 2 1  128 2 1  130 2 1  132 2 1  134 2 1  136 2 1  138 2 1  140 2 1  142 2 1  144 2 1  146 2 1  148 2 1  150 2 1  152 2 1  154 2 1  156 2 1  158 2 1  160 2 1  162 2 1  164 2 1  166 2 1  168 2 1  170 2 1  172 2 1  174 2 1  176 2 1  178 2 1  180 2 1  182 2 1  184 2 1  186 2 1  188 2 1  190 2 1  192 2 1  194 2 1  196 2 1  198 2 1  200 2 1  0 3 1  2 3 1  4 3 1  6 3 1  8 3 1  10 3 1  12 3 1  14 3 1  16 3 1  18 3 1  20 3 1  22 3 1  24 3 1  26 3 1  28 3 1  30 3 1  32 3 1  34 3 1  36 3 1  38 3 1  40 3 1  42 3 1  44 3 1  46 3 1  48 3 1  50 3 1  52 3 1  54 3 1  56 3 1  58 3 1  60 3 1  62 3 1  64 3 1  66 3 1  68 3 1  70 3 1  72 3 1  74 3 1  76 3 1  78 3 1  80 3 1  82 3 1  84 3 1  86 3 1  88 3 1  90 3 1  92 3 1  94 3 1  96 3 1  98 3 1  100 3 1  102 3 1  104 3 1  106 3 1  108 3 1  110 3 1  112 3 1  114 3 1  116 3 1  118 3 1  120 3 1  122 3 1  124 3 1  126 3 1  128 3 1  130 3 1  132 3 1  134 3 1  136 3 1  138 3 1  140 3 1  142 3 1  144 3 1  146 3 1  148 3 1  150 3 1  152 3 1  154 3 1  156 3 1  158 3 1  160 3 1  162 3 1  164 3 1  166 3 1  168 3 1  170 3 1  172 3 1  174 3 1  176 3 1  178 3 1  180 3 1  182 3 1  184 3 1  186 3 1  188 3 1  190 3 1  192 3 1  194 3 1  196 3 1  198 3 1  200 3 1  0 4 1  2 4 1  4 4 1  6 4 1  8 4 1  10 4 1  12 4 1  14 4 1  16 4 1  18 4 1  20 4 1  22 4 1  24 4 1  26 4 1  28 4 1  30 4 1  32 4 1  34 4 1  36 4 1  38 4 1  40 4 1  42 4 1  44 4 1  46 4 1  48 4 1  50 4 1  52 4 1  54 4 1  56 4 1  58 4 1  60 4 1  62 4 1  64 4 1  66 4 1  68 4 1  70 4 1  72 4 1  74 4 1  76 4 1  78 4 1  80 4 1  82 4 1  84 4 1  86 4 1  88 4 1  90 4 1  92 4 1  94 4 1  96 4 1
[...]
<PointData  Vectors="f_37"> 
<DataArray  type="Float64"  Name="f_37"  NumberOfComponents="3" format="ascii">1.5539439205581338e+00 1.2757437641526111e-04 -6.7164211975187114e-05  1.5540792418053997e+00 4.0853987459404316e-04 -3.1580441175986268e-04  1.5539604326896870e+00 3.3206868620628833e-04 -1.4606558408193038e-04  1.5538890000757115e+00 -1.7562725927584142e-04 3.5122917043386412e-05  1.5533910448014272e+00 -2.6539511529441673e-04 1.2114445937026637e-05  1.5525039503334934e+00 -2.2143346757028915e-05 9.1056420261711543e-05  1.5518151267053524e+00 1.2788705682641960e-04 4.1990136969636513e-06  1.5519284548006382e+00 -4.8438983699436272e-05 2.4220373388254664e-05  1.5511408905910951e+00 3.2351534185985209e-05 8.5166567745932194e-05  1.5500587013273459e+00 -4.2167025434619591e-05 -7.2044840896158493e-06  1.5490450590384812e+00 -3.8443973359045224e-05 1.0111369857481600e-04  1.5477579556974894e+00 -4.4578010459125989e-05 2.2578656744128201e-04  1.5459558477119149e+00 -6.9632965805356331e-05 2.3322592287504707e-04  1.5445249404017654e+00 -1.2236771478440226e-04 1.4663227237626445e-04  1.5434277168764148e+00 -7.0975082383610449e-05 1.2943617814543463e-04  1.5424531396354675e+00 -4.5223474500479677e-05 9.6350951748533809e-05  1.5418103898037476e+00 -3.2178406157625012e-05 3.2859283606506638e-05  1.5412421868296842e+00 4.2326173945536126e-07 3.1956978971828858e-05  1.5405981332390355e+00 -3.4392640764724038e-06 3.2911218892993260e-05  1.5400488699330890e+00 -1.9029374556247451e-05 5.0439780866673774e-05  1.5393539448862075e+00 -7.6533751132749868e-06 8.3158862635074557e-05  1.5387572941480312e+00 -1.3202556586985238e-05 3.6437135046463761e-05  1.5384321894054787e+00 -2.1842541156207724e-05 4.6495001328395823e-05  1.5375349504380298e+00 -2.3726802277777516e-05 1.5049185717856223e-04  1.5363750327545374e+00 -4.2657106574865681e-05 1.0471736278440140e-04  1.5355646027683318e+00 -3.3923016042270194e-05 5.1544642189998336e-05  1.5347002528953524e+00 -1.7270436358687365e-05 9.5047653984538331e-05  1.5337822426966163e+00 -2.6881094469117203e-05 9.6860053818907492e-05  1.5327448663510173e+00 -2.9471815522617891e-05 1.2731609514919214e-04  1.5315161715342553e+00 -3.9809591479794963e-05 1.3360845103340676e-04  1.5305063389034721e+00 -4.2607914796560118e-05 8.0607866514879390e-05  1.5295174411336241e+00 -2.0181599239092319e-05 1.0283670928562752e-04  1.5283545511646490e+00 -2.0674563758490983e-05 1.2881159003329975e-04  1.5271053414943492e+00 -2.7696135220758073e-05 1.4117460174946700e-04  1.5256648398023009e+00 -3.5079367843813136e-05 1.6459781097482223e-04  1.5243112262550180e+00 -5.3285911752169188e-05 1.2509545111180417e-04  1.5231228818792568e+00 -4.2998164227168076e-05 1.1470798578071735e-04  1.5216633776083022e+00 -2.6263621957372153e-05 1.7429228547353665e-04  1.5199703565460008e+00 -3.7438452674176927e-05 1.7969602673296282e-04  1.5185071834969839e+00 -5.0352537299069137e-05 1.2573303537483010e-04  1.5173038265650007e+00 -4.3276635463546384e-05 1.1295921196360337e-04  1.5159575077700536e+00 -3.1177676265174830e-05 1.5416341432985468e-04  1.5143580770179330e+00 -3.5679716723316657e-05 1.7979178091844113e-04  1.5126404345903259e+00 -4.0978616338484162e-05 1.8548424810482236e-04  1.5108433753189412e+00 -3.9211898469929330e-05 1.8961402280282048e-04  1.5091357933442289e+00 -4.8283472898314154e-05 1.7144656551074645e-04  1.5076342919228689e+00 -5.4744698358502838e-05 1.5416968001314831e-04  1.5061967848745941e+00 -4.5645932644494526e-05 1.5160886893033878e-04  1.5047430886317972e+00 -3.4728627136552071e-05 1.4088770624866865e-04  1.5031916721765202e+00 -3.0336220421789025e-05 1.5840336979705514e-04  1.5012777483594504e+00 -4.2630020056580559e-05 2.2764234919606842e-04  1.4989842078142588e+00 -7.1235180858226851e-05 2.6669235596276454e-04  1.4966247170428344e+00 -7.6414754415958297e-05 2.4447884033817905e-04  1.4942652977183311e+00 -4.9427224007983224e-05 2.3671629993200481e-04  1.4919129928965664e+00 -4.8724662043705877e-05 2.3505226015312297e-04  1.4898349152434172e+00 -7.7151572975866562e-05 2.0855971577376191e-04  1.4879455903178664e+00 -7.4289235236327345e-05 2.1505109530530503e-04  1.4859757277794461e+00 -4.3795890190897805e-05 2.1278146337992801e-04  1.4842314725919923e+00 -2.0905423943856698e-05 1.3564274162450402e-04  1.4829526556670130e+00 -2.2916410467660741e-05 9.8880802218281606e-05  1.4818172167064327e+00 -6.6395479198195871e-05 1.4030162823190377e-04  1.4807093869441146e+00 -7.6541249973041613e-05 1.3495269387643892e-04  1.4794847591128484e+00 2.0235115461458376e-05 1.1411962972701214e-04  1.4778574111631879e+00 7.2859702052621402e-05 1.3156616160142355e-04  1.4764254577406000e+00 -4.1051631261457397e-05 1.1994097965003067e-04  1.4756059830433395e+00 -1.6410028102978373e-04 1.4040865474317359e-04  1.4747285987364072e+00 -1.4510389571114699e-04 1.8866658154032963e-04  1.4734988384810628e+00 -8.3104467941109615e-07 1.2372941908607863e-04  1.4722381882180349e+00 1.3299641612195303e-04 5.0084898123162053e-06  1.4712293685463611e+00 7.7106727986863530e-05 8.9166960759172079e-06  1.4703064709657030e+00 -1.3961605737306725e-04 1.9994997701790039e-04  1.4690479146136544e+00 -2.4324141881138005e-04 3.0673615990231009e-04  1.4679178133032669e+00 -2.3986944954795256e-05 5.8385885153231925e-05  1.4671888952760457e+00 2.8015146965305833e-04 -1.4137013000395141e-04  1.4663251519603437e+00 1.7842024340457050e-04 2.0014527891897468e-06  1.4657244692905467e+00 -2.1337076202908748e-04 1.6841164494980944e-04  1.4651740699193083e+00 -3.4237721940067178e-04 2.7551041527319818e-04  1.4640737709360929e+00 -1.4515828213237293e-04 1.9240248148046066e-04  1.4632994915917792e+00 1.6589117245627288e-04 -1.1768374097358036e-04  1.4625424415891035e+00 2.9064132883424365e-04 -1.0439116178409043e-04  1.4613213081039873e+00 -4.7209976895468383e-05 1.9731924902523007e-04  1.4601008966566869e+00 -3.7573856641356533e-04 3.6305402592018784e-04  1.4586082943627994e+00 -1.9867440819576552e-04 2.8952983254679297e-04  1.4568140745326317e+00 1.5798820438580054e-04 4.7313760514125917e-05  1.4554227304662963e+00 2.5714474613973296e-04 -7.1476417197158254e-05  1.4543372520967011e+00 5.5778320455786337e-05 8.0485722776546431e-05  1.4531991737926724e+00 -2.5442653170833066e-04 2.5406694076310344e-04  1.4522961070269622e+00 -2.6500214055355872e-04 2.0159858379478098e-04  1.4514285594741978e+00 5.4730250787004288e-05 2.5212891558666983e-05  1.4507708276505902e+00 2.0093919557280662e-04 -5.9338027056041645e-05  1.4500909461984379e+00 2.4080261461201878e-05 -1.0552535298290792e-05  1.4501730048703585e+00 -2.0251045189020081e-04 9.2754097580857782e-05  1.4494395532975206e+00 -5.0642025506686634e-05 1.8277834304125665e-04  1.4486473056132692e+00 -7.4651640975096180e-06 4.1857354734301188e-05  1.4486697714066969e+00 3.3452255164463680e-05 -8.8140241942795584e-05  1.4485482929670492e+00 7.3261599508546107e-05 1.5989928625096317e-04  1.4475768710430887e+00 -4.2569740925014422e-05 1.5347777691271567e-04  1.4475892914532060e+00 -1.9132291992772632e-04 2.0440006743733943e-05  1.4477830496452873e+00 -2.5285038315062369e-04 9.1552296947860649e-05  1.4479858686863412e+00 -1.7312841468509026e-04 -1.3847494323947904e-04  1.4478120015230505e+00 1.0303751539105459e-04 2.4215108013016738e-05  1.5541345702573099e+00 1.5198596035940197e-05 -3.5158961042465997e-05  1.5541737399550426e+00 2.3602426020263707e-04 -7.6209871056474307e-05  1.5538034515238095e+00 1.9968717977500412e-04 -1.6196655415201872e-04  1.5537405343575228e+00 -8.1523767473776383e-05 -6.3696076971809116e-05  1.5534521772826622e+00 -1.4252929472967314e-04 -1.4956258162474555e-04  1.5525536060377050e+00 2.6024345589450527e-05 -3.5302185850598828e-05  1.5518926420258259e+00 7.7121087413424476e-05 -4.8971779723859408e-05  1.5517984525586119e+00 7.0569601342603677e-05 -2.8236660992777486e-05  1.5511983459228922e+00 -1.3926191641780428e-04 -1.4046461007252012e-04  1.5500687312206409e+00 -4.6476507040080237e-05 -1.7233423627019696e-04  1.5490245813334378e+00 -4.4901020488029055e-05 -9.1585635665489076e-05  1.5477199900586107e+00 -8.5577755431471390e-05 -1.1348806702182488e-04  1.5459873213832449e+00 -1.3636246323874151e-04 -1.7098070236405666e-04  1.5445087524604606e+00 -1.0557507612585497e-04 -9.5542681389977619e-05  1.5434263400079096e+00 -1.0204847422185773e-04 -9.0070256541836666e-05  1.5424799990146578e+00 -9.2897491646466230e-05 -8.4681747300598232e-05  1.5418083328070233e+00 -7.0823116143172332e-05 -7.7729507448043791e-05  1.5412454595318326e+00 -8.0071066573042299e-05 -1.1026896318474440e-04  1.5406104346574823e+00 -6.8640221697012046e-05 -9.8292546590158524e-05  1.5400263351573222e+00 -4.4461259182694817e-05 -7.1173349030766072e-05  1.5393639158046495e+00 -4.6732706677112795e-05 -5.0224705810587255e-05  1.5387815046390847e+00 -1.6001102576029456e-05 -3.8090362043181692e-05  1.5383895728197481e+00 -1.5117923979770057e-05 -8.0011639759804164e-05  1.5375382500032393e+00 -7.3368298976118391e-05 -1.2531160345434069e-04  1.5364004000177292e+00 -8.0033741941733404e-05 -1.0759018196487569e-04  1.5355466717593558e+00 -5.5242393626435040e-05 -8.6015782839744074e-05  1.5347120890670161e+00 -4.9066948604997756e-05 -1.0779747276239680e-04  1.5337743616812025e+00 -6.2777414627720394e-05 -1.1085912688245839e-04  1.5327244627381691e+00 -1.0932848993770563e-04 -1.0268061131407381e-04  1.5315406175590356e+00 -1.1444963847564855e-04 -1.0593483833138271e-04  1.5305053975992526e+00 -6.6657110052474616e-05 -9.4419027143676269e-05  1.5295153366114813e+00 -4.8761800647597886e-05 -9.8220484278217061e-05  1.5283618743986864e+00 -5.4047780866187696e-05 -1.1987150075055714e-04  1.5270838895585976e+00 -9.0881483883872898e-05 -1.2371352410621203e-04  1.5256700604369431e+00 -1.3075216831877882e-04 -1.2346966787749880e-04  1.5243271592068541e+00 -1.0319246823517303e-04 -1.3319776946715605e-04  1.5231114535579651e+00 -7.4582300126791731e-05 -1.4483038178901371e-04  1.5216590191558335e+00 -8.9773175045064051e-05 -1.5095538395501270e-04  1.5199796919750823e+00 -1.0088283816851623e-04 -1.4181027160527069e-04  1.5185107069372872e+00 -9.1476363787384375e-05 -1.3006562183511187e-04  1.5172953388427288e+00 -8.2797657218169020e-05 -1.3427917811427540e-04  1.5159539033496785e+00 -9.7977376902049949e-05 -1.4003982819393797e-04  1.5143625650447374e+00 -1.1311718163385053e-04 -1.4539403938913120e-04  1.5126383166796131e+00 -1.1054867332983194e-04 -1.5689684872606296e-04  1.5108425841537554e+00 -1.1615437602981587e-04 -1.4967416684110319e-04  1.5091362639581134e+00 -1.2203129957911581e-04 -1.2729243889199009e-04  1.5076297940153334e+00 -1.1549289133957365e-04 -1.2111910512440507e-04  1.5062017643336947e+00 -1.0948797009490888e-04 -1.3263422416539484e-04  1.5047553038854882e+00 -9.9226368388459591e-05 -1.5678725096660985e-04  1.5031854492011354e+00 -9.7897417704746200e-05 -1.8643896455032549e-04  1.5012612205355618e+00 -1.3458048444643086e-04 -2.0748820520657187e-04  1.4989864997533087e+00 -1.7254404412493703e-04 -2.2269673940594539e-04  1.4966297485944668e+00 -1.6953109681820084e-04 -2.2440980916751130e-04  1.4942635668979611e+00 -1.5655418724001857e-04 -2.0199198986292912e-04  1.4919231914506603e+00 -1.3961518088132830e-04 -1.8265359350808823e-04  1.4898297144457198e+00 -1.1376795044641307e-04 -1.8068192224911873e-04  1.4879213408647272e+00 -1.4034370970568915e-04 -1.7041870535471060e-04  1.4859909332042895e+00 -1.8340820576206351e-04 -1.4141398479290029e-04  1.4842622006593327e+00 -1.3536008596412609e-04 -1.1567101318417849e-04  1.4829365144632227e+00 -6.6870751939269559e-05 -1.0869778369006745e-04  1.4818022353399876e+00 -6.5196165172628576e-05 -1.0530192036240043e-04  1.4807209828249897e+00 -7.4928559448342387e-05 -1.1203217305823020e-04  1.4794911885172746e+00 -9.6654804980656446e-05 -1.4027083296266535e-04  1.4778766682128430e+00 -1.1092575855018333e-04 -1.3000868280859952e-04  1.4764123776030211e+00 -5.4792909551134611e-05 -7.4475768866561436e-05  1.4755498316971343e+00 -2.9303375967731625e-05 -6.1981785413793222e-05  1.4747284654562385e+00 -8.7206462652573009e-05 -9.2075354431279548e-05  1.4735519090444122e+00 -1.3836951089673375e-04 -1.1168638123253271e-04  1.4722968121371121e+00 -1.1038079880551983e-04 -1.3240850478783538e-04  1.4712126624875614e+00 -2.5821694587746955e-06 -1.3395606949763710e-04  1.4701836533316868e+00 -7.1212476340865874e-06 -8.4176464326474299e-05  1.4690383827496112e+00 -1.5120874310384951e-04 -5.5799832623631810e-05  1.4680471487821660e+00 -1.5937476722746683e-04 -8.2717074233565436e-05  1.4672340034049178e+00 -4.8733826390613264e-05 -1.0728892836015394e-04  1.4662908727928692e+00 2.3925868907355669e-05 -1.0348792171894437e-04  1.4656132406522164e+00 3.5112480151466010e-05 -4.7218340833495156e-05  1.4650879729323745e+00 -8.5050005250711941e-05 -1.0212908496219075e-05  1.4642021047509448e+00 -1.7451007680525181e-04 -7.3998816873775144e-05  1.4634150053378217e+00 -8.1811818017982771e-05 -1.3227416291583760e-04  1.4625203089877117e+00 1.1363079942992882e-05 -1.4730655244866075e-04  1.4612208409540064e+00 1.8164169133397199e-05 -1.3276272885403922e-04  1.4599945857209471e+00 -9.1655334701543678e-05 -7.8416760539166451e-05  1.4586647859027657e+00 -2.4792815700402617e-04 -1.0282227129860383e-04  1.4569705210699835e+00 -1.8978404649003927e-04 -1.5472877884713482e-04  1.4554425144823997e+00 -1.1149213213585762e-06 -1.2955448484807368e-04  1.4542257780436803e+00 1.5901694935212449e-05 -1.0475996028383679e-04  1.4531283494950411e+00 -6.6104200680742358e-05 -8.6452648786292585e-05  1.4523081048253299e+00 -1.1454156361895210e-04 -6.7348783936432987e-05  1.4515297742277364e+00 -1.3055396131569168e-04 -5.7280581756006094e-05  1.4507919594393768e+00 -4.8944771919648933e-05 -5.8151030795315353e-05  1.4500736143168480e+00 5.8504062406116659e-05 -9.8885542485221091e-05  1.4500595002708589e+00 -2.3944651664571616e-06 -4.9349411577425784e-05  1.4494646161447837e+00 -1.1740122382456836e-04 -1.8829250501032456e-05  1.4487410011994855e+00 -6.2926069485655918e-05 -2.7195899947667305e-06  1.4486464135659534e+00 3.9003434094131090e-05 4.0164689001903143e-05  1.4484754093241829e+00 -9.1006910148036936e-05 -6.7068524226911828e-05  1.4476361523285539e+00 -1.1843228442365815e-04 -1.7862005918840052e-06  1.4475425995962294e+00 -3.7281159996376856e-05 1.1592301032282571e-07  1.4477048940695620e+00 3.7279659885460626e-05 1.1437600569218467e-04  1.4480621904254158e+00 -3.8874130395057586e-05 -2.5606114278128715e-04  1.4478931815305269e+00 -6.2224163794185957e-05 1.4799419113931020e-04  1.5542318334115413e+00 -2.5613843295513535e-05 -1.0786164081851178e-04  1.5541214659869642e+00 -1.1313257217400486e-04 -2.5663960908522231e-05  1.5537774664675064e+00 -3.8034726985835795e-04 8.2760711860718633e-05  1.5537801320861240e+00 2.0924558876086277e-05 -2.3676061764885345e-04  1.5533141774447019e+00 7.1130777435033618e-05 -9.9712644926030626e-05  1.5526839729016932e+00 -2.0154202446309090e-04 -2.0770399950321069e-04  1.5519921870019735e+00 6.9478389719140654e-05 -1.9564547940880702e-04  1.5516149150012597e+00 1.0676874369054814e-04 -1.0499390314952076e-04  1.5511595956222204e+00 -1.9195789649293927e-04 9.0197988683327906e-05  1.5501255697289289e+00 -1.1059580538566018e-04 1.8413719916260874e-05  1.5489642476492775e+00 -8.9544555607434919e-05 6.4611291191674121e-05  1.5476685122052298e+00 -2.7205080273016627e-04 5.5481788750452152e-05  1.5460112398209331e+00 -3.3512883146984455e-04 8.4048473451617652e-05  1.5445398974718272e+00 -2.2282763046581981e-04 5.2247525023382567e-05  1.5434285407552930e+00 -1.8828949759403682e-04 4.3174260364401178e-05  1.5424968329714999e+00 -1.9998297671949437e-04 4.8506333258995459e-05  1.5418006119466050e+00 -1.8350135980255640e-04 3.3895061116935670e-05  1.5412371627994115e+00 -2.1430267475604207e-04 4.7735314646422045e-05  1.5406417908976702e+00 -1.9076572669969146e-04 3.7238973066086839e-05  1.5400311407924514e+00 -1.2420527503107751e-04 2.1910152092838312e-05  1.5393865446485420e+00 -1.1989035610579034e-04 3.7665483988806253e-05  1.5388119184179905e+00 -6.1478461841849307e-05 3.4629857893656308e-06  1.5383345299644151e+00 -4.4378813047175241e-05 -7.5429125391634842e-06  1.5374971203711238e+00 -1.7714470628126029e-04 5.8550241570779826e-05  1.5364251861119136e+00 -2.1063183000605951e-04 5.6277428562125468e-05  1.5355601950921336e+00 -1.3934353552929005e-04 1.4496437871158067e-05  1.5347091890587312e+00 -1.3794386503868773e-04 2.4232433199721633e-05  1.5337370783281135e+00 -1.7858897592240884e-04 4.5636753959186358e-05  1.5326903555372509e+00 -2.6079911918240432e-04 7.7403672675469096e-05  1.5315772884747605e+00 -2.7955841657459433e-04 7.7907193597065081e-05  1.5305368914207993e+00 -1.7601177129989503e-04 3.9614309865738642e-05  1.5295154838802525e+00 -1.3322229283419063e-04 3.7930820086336063e-05  1.5283399671778883e+00 -1.6310863662608011e-04 5.0898914625877225e-05  1.5270330614398056e+00 -2.3681938311675407e-04 7.3703711761775897e-05  1.5256703228697066e+00 -3.1549092199648418e-04 8.9887005472310703e-05  1.5243650642060966e+00 -2.6825975280748244e-04 5.5156962434130383e-05  1.5231061092729807e+00 -2.0340153128650332e-04 4.1658990096153332e-05  1.5216341929564181e+00 -2.4135567269406303e-04 7.7413521637502926e-05  1.5199830869156219e+00 -2.8391024373121979e-04 9.0768640640054402e-05  1.5185339836094891e+00 -2.5646618121713229e-04 6.1780703069926870e-05  1.5172926912447831e+00 -2.1785184452536934e-04 4.7223208325506333e-05  1.5159293442952062e+00 -2.4571232906093598e-04 7.2433874840751480e-05  1.5143536633027725e+00 -2.8826940690634219e-04 8.5788609078056260e-05  1.5126320074306223e+00 -2.9926283312676675e-04 8.7426293074046463e-05  1.5108375215845120e+00 -3.1821330316658144e-04 1.0400689471908812e-04  1.5091491214337862e+00 -3.1728211314707038e-04 1.0061388422056947e-04  1.5076402208438180e+00 -2.8349096644840748e-04 8.0329071350673101e-05  1.5062042486255649e+00 -2.6864687385972410e-04 7.0405403814620889e-05  1.5047567839071345e+00 -2.6619946727178995e-04 6.0201469993660623e-05  1.5031566896862931e+00 -2.8070437063408815e-04 6.8552655871456175e-05  1.5012111598810498e+00 -3.5938921372555662e-04 1.0897317165893841e-04  1.4989733022519467e+00 -4.3775059319227014e-04 1.2793238948919012e-04  1.4966398154563869e+00 -4.3397023778804207e-04 1.1653679865541675e-04  1.4942697082530390e+00 -4.1335190442836549e-04 1.2234725674207985e-04  1.4919563762822825e+00 -3.8799201801197953e-04 1.1648115179068547e-04  1.4898450915843815e+00 -3.2376246043406626e-04 8.8261247097755439e-05  1.4878799260410067e+00 -3.4255127151300844e-04 1.0704820133781561e-04  1.4859959710516581e+00 -4.2038685105958004e-04 1.3085731313830244e-04  1.4843278267570348e+00 -3.5715356700955278e-04 8.9346835931501179e-05  1.4829696747576693e+00 -2.2892351970365941e-04 5.5340820339659960e-05  1.4818205779769928e+00 -1.7191731368940919e-04 4.9793607189760049e-05  1.4807055420131054e+00 -1.5184964494339889e-04 3.3621115655891469e-05  1.4794202802212177e+00 -2.4965228732310086e-04 7.3509165625194065e-05  1.4778945178667233e+00 -3.6832791945420038e-04 1.2784893812641578e-04  1.4765088796737000e+00 -2.3088056145314665e-04 7.1193519992754700e-05  1.4755704262879434e+00 -3.1385833161719600e-05 1.2406070031875476e-07  1.4746644811681893e+00 -6.9031016818038495e-05 2.5144759279248434e-05  1.4734772728759320e+00 -2.6689414128807146e-04 8.2712346586234515e-05  1.4723325778477614e+00 -3.7900251453939403e-04 8.6734390976492392e-05  1.4713019284592566e+00 -2.2046764697048921e-04 4.0029479741487068e-05  1.4701530468968214e+00 -6.0948468913795657e-05 4.4960562277260806e-05  1.4690011758537906e+00 -1.4871873758106027e-04 6.6820003252032054e-05  1.4680445756595633e+00 -2.4249899741095841e-04 2.6049805295479417e-05  1.4672135577478940e+00 -3.1215889849219134e-04 5.0323935936671202e-05  1.4663909520757954e+00 -2.7709816768745733e-04 8.8927069688685186e-05  1.4656788494627220e+00 3.0301960426300325e-05 1.2613728434134885e-05  1.4649942739568036e+00 1.0232771591138139e-04 4.5586779775691377e-06  1.4641652