<?xml version="1.0"?>
<VTKFile type="UnstructuredGrid"  version="0.1"  >
<UnstructuredGrid>
<Piece  NumberOfPoints="4490" NumberOfCells="21362">
<Points>
<DataArray  type="Float64"  NumberOfComponents="3"  format="ascii">-38.723505 24.417636 -20.106446  -38.72062575 23.58362925 -20.9797695  -39.220039 23.542942 -20.1117725  -40.06943525 23.80485375 -21.812543  -39.716573 22.668248 -20.117099  -40.5688485 23.7641665 -20.944546  -42.414192 23.110697 -21.782646  -41.0653825 22.8894725 -20.9498725  -40.0723145 24.6388605 -20.9392195  -41.42112400000001 24.860085 -21.771993  -52.226008 10.105003 -17.502373  -51.21392525 10.202866 -17.992124  -51.214951 10.9289955 -17.5701835  -51.44857575 10.289923 -17.3030895  -50.6711435 10.474843 -17.103806  -50.20286824999999 11.0268585 -18.0599345  -50.436493 10.387786 -17.7928405  -50.43751875 11.1139155 -17.3709  -50.203894 11.752988 -17.637994  -50.2018425 10.300729 -18.481875  -51.75773275 10.6570185 -18.4585015  -51.9913575 10.017946 -18.1914075  -51.756707 9.930889000000001 -18.880442  -51.99238325 10.7440755 -17.769467  -51.7587585 11.383148 -18.036561  -50.9803005 10.8419385 -18.259218  -50.98132625 11.568068 -17.8372775  -51.524108 11.296091 -18.7255955  -51.2894575 11.209034 -19.41463  -51.291509 12.661293 -18.570749  -50.74667574999999 11.481011 -18.526312  -50.7477015 12.2071405 -18.1043715  -51.52513374999999 12.0222205 -18.303655  -51.29048324999999 11.9351635 -18.9926895  -49.116279 10.844683 -16.705239  -49.65906074999999 10.572706 -17.593557  -49.6600865 11.2988355 -17.1716165  -49.89371125 10.659763 -16.9045225  -51.4936535 9.46462425 -17.73957325  -50.71622125 9.64954425 -17.54028975  -49.938789 9.83446425 -17.34100625  -43.262606 27.823613 -22.140313  -41.5762015 27.4817845 -22.00567025  -42.12783075 26.97211875 -21.63184625  -41.849053 26.786637 -22.35261975  -40.4355 25.749661 -22.5649265  -40.44142625 26.63029025 -21.4972035  -40.1626485 26.4448085 -22.217977  -40.71427775 25.93514275 -21.844153  -40.9930555 26.1206245 -21.1233795  -39.889797 27.139956 -21.8710275  -42.98382825 27.63813125 -22.8610865  -41.29742375 27.29630275 -22.72644375  -42.7050505 27.4526495 -23.58186  -42.71097675 28.33327875 -22.514137  -41.02457225 27.99145025 -22.37949425  -42.432199 28.147797 -23.2349105  -42.1593475 28.8429445 -22.887961  -40.7457945 27.8059685 -23.10026775  -41.018646 27.110821 -23.44721725  -41.601792 28.471981 -24.329508  -41.88056975 28.65746275 -23.6087345  -42.15342124999999 27.96231525 -23.955684  -41.056089 29.862276 -23.635609  -41.60771825 29.35261025 -23.261785  -41.3289405 29.1671285 -23.9825585  -40.472943 28.501116 -22.75331825  -39.306651 25.778796 -20.98873675  -39.85828025 25.26913025 -20.61491275  -39.5795025 25.0836485 -21.33568625  -38.682819 31.859567 -24.992149  -37.4453845 31.91896325 -23.3808895  -37.140917 31.69804125 -24.1552155  -37.75536 31.2159145 -23.8632045  -36.827901 30.572262 -22.73426  -36.5179255 31.27531075 -22.251945  -36.213458 31.05438875 -23.026271  -35.599015 31.5365155 -23.318282  -35.9034825 31.7574375 -22.543956  -36.20795 31.9783595 -21.76963  -38.3728435 32.56261575 -24.509834  -38.062868 33.2656645 -24.027519  -37.135409 32.622012 -22.8985745  -36.8309415 32.40109 -23.6729005  -37.442917 34.671762 -23.062889  -36.8254335 33.32506075 -22.4162595  -36.520966 33.10413875 -23.1905855  -34.979064 32.942613 -22.353652  -32.515211 31.213464 -21.644415  -34.3615805 31.59591175 -21.7070225  -34.057113 31.37498975 -22.4813485  -37.7528925 33.96871325 -23.545204  -34.972983 29.284957 -20.476371  -35.5904665 30.63165825 -21.1230005  -35.285999 30.41073625 -21.8973265  -33.744097 30.2492105 -21.060393  -35.900442 29.9286095 -21.6053155  -39.881075 32.591904 -21.98335  -38.0445125 32.28513175 -21.87649  -38.9719715 32.92878425 -23.0054345  -38.661996 33.631833 -22.5231195  -38.65405200000001 31.76516725 -21.60660525  -38.354488 31.582083 -22.358805  -37.127465 30.75534625 -21.98206025  -36.8174895 31.458395 -21.49974525  -37.427029 30.9384305 -21.2298605  -39.58151100000001 32.40881975 -22.73554975  -37.7449485 32.1020475 -22.62868975  -38.054924 31.39899875 -23.11100475  -39.281947 32.2257355 -23.4877495  -38.67240750000001 32.7457 -23.75763425  -38.982383 32.04265125 -24.23994925  -36.200006 30.11169375 -20.85311575  -37.445101 37.713897 -17.650109  -35.884486 36.045476 -19.49994625  -34.333742 35.7451655 -18.7405225  -36.532733 36.227205 -17.90599275  -36.796854 37.532168 -19.2440625  -34.981989 35.9268945 -17.146569  -36.148607 37.350439 -20.838016  -32.518877 34.139892 -16.643029  -34.069621 34.4402025 -17.40245275  -35.620365 34.740513 -18.1618765  -35.5603625 35.9546115 -20.296923  -33.7454975 34.349338 -18.1994295  -35.29624149999999 34.6496485 -18.95885325  -34.97211799999999 34.558784 -19.75583  -33.795629 31.767129 -18.673644  -34.38387349999999 33.1629565 -19.214737  -34.707997 33.253821 -18.41776025  -33.157253 32.9535105 -17.6583365  -38.696982 35.22397 -19.945315  -36.83454999999999 34.89137700000001 -19.8505725  -37.1586735 34.9822415 -19.05359575  -37.42279449999999 36.2872045 -20.3916655  -38.38401175 35.84645175 -19.3715135  -37.10982425 36.90968625000001 -19.817864  -36.84570325 35.60472325000001 -18.47979425  -38.0710415 36.46893350000001 -18.797712  -37.47164375 34.35975975 -19.62739725  -35.93333525 34.11803125 -18.735678  -35.60921175 34.02716675000001 -19.53265475  -36.2463055 33.4955495 -19.3094795  -37.75807125 37.09141525 -18.2239105  -35.02096725 32.63133925 -18.99156175  -38.32321925 24.35401675 -20.878929  -39.67202875 24.57524125 -21.7117025  -37.9229335 24.2903975 -21.651412  -40.92831200000001 25.304873 -22.16845975  -41.054696 33.049818 -18.92674  -40.4652675 33.593356 -19.18138375  -39.97716425 32.982939 -19.41772375  -40.17186225 33.4788775 -19.94553625  -39.2890285 33.907937 -20.9643325  -39.58243375 34.0224155 -20.20018  -39.0943305 33.4119985 -20.43652  -38.8996325 32.91606 -19.9087075  -39.38773575 33.526477 -19.6723675  -39.875839 34.136894 -19.4360275  -40.2705695 33.0974175 -18.65357125  -39.19303775 33.0305385 -19.144555  -39.681141 33.6409555 -18.908215  -39.486443 33.145017 -18.3804025  -40.76129075 32.9353395 -19.6908925  -39.878457 33.36439900000001 -20.70968875  -40.4678855 32.820861 -20.455045  -39.683759 32.8684605 -20.18187625  -39.39035375 32.753982 -20.94602875  -40.17448025 32.7063825 -21.2191975  -39.58505175000001 33.2499205 -21.47384125  -38.502284 34.7280315 -19.4175025  -39.2864105 34.680432 -19.69067125  -38.79830725 34.070015 -19.92701125  -38.60360925000001 33.5740765 -19.39919875  -39.0917125 34.1844935 -19.16285875  -38.307586 34.232093 -18.88969  -38.99300525 34.56595350000001 -20.45482375  -37.91819 33.240216 -17.834065  -38.112888 33.7361545 -18.3618775  -38.8970145 33.68855499999999 -18.63504625  -38.40891125 33.078138 -18.87138625  -38.7023165 33.1926165 -18.10723375  -39.54531900000001 32.0946325 -19.35315175  -38.76119250000001 32.142232 -19.079983  -38.46778725 32.0277535 -19.8441355  -38.03594200000001 31.139447 -19.7795635  -39.25191375 31.980154 -20.11730425  -39.83872425 32.209111 -18.58899925  -38.32934725 31.2539255 -19.015411  -39.05459775 32.2567105 -18.3158305  -38.6227525 31.368404 -18.2512585  -38.95850850000001 31.8656755 -20.88145675  -36.190809 29.68699 -17.575777  -36.62265425 30.5752965 -17.640349  -37.40678075 30.527697 -17.91351775  -37.1133755 30.4132185 -18.67767025  -37.54522075000001 31.301525 -18.74224225  -37.838626 31.4160035 -17.97808975  -37.05449950000001 31.463603 -17.704921  -37.48634475 32.3519095 -17.769493  -38.27047125 32.30431 -18.04266175  -37.97706600000001 32.1898315 -18.80681425  -38.3597135 32.38571025 -21.1559235  -36.838352 32.1795165 -20.328497  -37.86899225000001 32.54778825 -20.11860225  -38.06369025 33.04372675 -20.64641475  -37.767667 33.70174325 -20.136906  -37.572969 33.20580475 -19.6090935  -36.54232875 32.837533 -19.81898825  -37.27694575 33.86382125 -19.09958475  -34.82626925 32.13540075 -18.46374925  -35.3169905 31.97332275 -19.5010705  -36.34763075 32.3415945 -19.29117575  -36.0516075 32.999611 -18.781667  -35.8569095 32.5036725 -18.2538545  -36.88754975000001 32.87194425 -18.04395975  -37.08224775 33.36788275 -18.57177225  -37.378271 32.70986625 -19.081281  -37.437147 31.65948175 -20.05403025  -36.02385925 31.09533125 -17.91481575  -36.5145805 30.93325325 -18.952137  -36.94642575 31.82155975 -19.016709  -36.4557045 31.98363775 -17.97938775  -35.592014 30.20702475 -17.85024375  -35.9157855 31.453288 -19.22660375  -35.42506425 31.615366 -18.1892825  -34.993219 30.7270595 -18.1247105  -34.394424 31.24709425 -18.39917725  -35.89011975 30.28019875 -17.118867  -35.58943050000001 30.8734075 -16.661957  -36.32196500000001 31.16850525 -17.183439  -35.72317 31.68854 -17.45790575  -35.29132475 30.8002335 -17.39333375  -34.988052 32.059825 -15.748137  -34.9906355 31.39344225 -16.93642375  -35.42248075000001 32.28174875 -17.00099575  -34.3918405 31.913477 -17.2108905  -36.02127575 31.761714 -16.726529  -36.453121 32.6500205 -16.791101  -35.28874125 31.46661625 -16.205047  -39.834005 29.0663505 -23.20477275  -39.54239675 28.84372775 -23.9359525  -40.1068565 28.371203 -23.55172225  -39.157624 26.88013 -23.4678355  -38.8847725 27.5752775 -23.120886  -38.611921 28.270425 -22.7739365  -41.03733225 28.94450575 -24.71373825  -45.989047 14.137793 -13.60626  -46.5131255 14.03979925 -14.573069  -46.765918 13.38152025 -14.3975295  -46.765918 13.942189 -13.89786325  -47.542789 13.746585 -14.1894665  -47.2899965 13.84419525 -14.86467225  -47.542789 13.18591625 -14.68913275  -47.542789 12.6252475 -15.188799  -47.2899965 13.2835265 -15.3643385  -47.037204 13.9418055 -15.539878  -45.989047 13.57712425 -14.10592625  -45.989047 13.0164555 -14.6055925  -46.5131255 13.4791305 -15.07273525  -46.765918 12.8208515 -14.89719575  -45.7362545 14.23540325 -14.28146575  -46.260333 14.1374095 -15.24827475  -45.7362545 13.6747345 -14.781132  -45.483462 14.3330135 -14.9566715  -45.989047 11.895118 -15.604925  -46.5131255 12.91846175 -15.57240
[...]
<PointData  Scalars="p"> 
<DataArray  type="Float64"  Name="p"  format="ascii">1.0208764198209069e+01  1.0210092211144303e+01  1.0230903799973294e+01  1.0217402834893239e+01  1.0252850531112069e+01  1.0237826306740255e+01  1.0265372157417854e+01  1.0259345995773282e+01  1.0216512057441580e+01  1.0223762844349897e+01  1.0747562613504131e+01  1.0713631534943882e+01  1.0713409200303454e+01  1.0738376822178829e+01  1.0729100804411200e+01  1.0680426167025631e+01  1.0704553315850754e+01  1.0703949353011049e+01  1.0679204550316737e+01  1.0680426967448861e+01  1.0698790054343569e+01  1.0722522597411981e+01  1.0697861836170549e+01  1.0722716669939709e+01  1.0698151291854536e+01  1.0689697129172774e+01  1.0688819200245602e+01  1.0675258841071107e+01  1.0652722203443506e+01  1.0650840228080678e+01  1.0666106342820393e+01  1.0664720659109481e+01  1.0674068734385052e+01  1.0652304423452117e+01  1.0709880124076378e+01  1.0695260789711821e+01  1.0694223253107884e+01  1.0719609164213413e+01  1.0739881920013573e+01  1.0731009789573282e+01  1.0722002680144900e+01  1.0204513871960131e+01  1.0185569662047584e+01  1.0205471588612324e+01  1.0195482982539573e+01  1.0185654090790440e+01  1.0185998809558924e+01  1.0175850874517597e+01  1.0196149994447065e+01  1.0206493034311180e+01  1.0165864963496846e+01  1.0194962706880274e+01  1.0175756621486792e+01  1.0185081192463940e+01  1.0185356475632823e+01  1.0165993976602071e+01  1.0175769726301022e+01  1.0166134531143534e+01  1.0156355164356739e+01  1.0165803751290298e+01  1.0147340541074403e+01  1.0156726062918850e+01  1.0166055382921442e+01  1.0128996930237406e+01  1.0147226955076132e+01  1.0138148114197168e+01  1.0146749556901574e+01  1.0186465195522270e+01  1.0207577248703815e+01  1.0196861513008386e+01  1.0057551981777367e+01  1.0052132512254705e+01  1.0043385933019961e+01  1.0060838531831649e+01  1.0064278979770112e+01  1.0055135713731502e+01  1.0046265110748353e+01  1.0028506431434424e+01  1.0037237812871338e+01  1.0045813288457291e+01  1.0049274286491835e+01  1.0040717109442628e+01  1.0043244682730831e+01  1.0034776193029080e+01  1.0023333822036040e+01  1.0034202087374590e+01  1.0026001295857849e+01  1.0010526022290122e+01  9.9962923898866531e+00  1.0021553313901540e+01  1.0012841664646604e+01  1.0032018741275833e+01  1.0071381159657724e+01  1.0058198702811620e+01  1.0049204424902650e+01  1.0033310102617493e+01  1.0067820665279939e+01  1.0092560540175441e+01  1.0069600593425466e+01  1.0066525200235446e+01  1.0057420470384491e+01  1.0087670548461213e+01  1.0078864934657577e+01  1.0073490441611611e+01  1.0064048885516746e+01  1.0082560344824858e+01  1.0084038216644283e+01  1.0060928098445384e+01  1.0069911809115547e+01  1.0075266087376090e+01  1.0057895909623499e+01  1.0066373685693696e+01  1.0077170579367722e+01  1.0023412421952253e+01  1.0008656957636330e+01  9.9929739976038832e+00  1.0026310084552165e+01  1.0006690173439150e+01  1.0010616033136852e+01  9.9895273922453054e+00  9.9964147345486083e+00  1.0013212129597788e+01  1.0029140486120681e+01  9.9996646078038012e+00  1.0003935811131424e+01  1.0019870817271784e+01  1.0010479259794776e+01  1.0034263634166638e+01  1.0021999283825680e+01  1.0031817441573281e+01  1.0015673437292072e+01  1.0058001187314813e+01  1.0034644055581042e+01  1.0043933105755427e+01  1.0023245703880312e+01  1.0049613229074215e+01  1.0014950181891301e+01  1.0035199645316720e+01  1.0040968217230498e+01  1.0052485973715640e+01  1.0038036133687569e+01  1.0028485114287687e+01  1.0046752254310999e+01  1.0032180584202582e+01  1.0040708896396065e+01  1.0192988711729177e+01  1.0201037718823370e+01  1.0177498974714686e+01  1.0204542891273402e+01  1.0128955051775961e+01  1.0110972138815862e+01  1.0109948662272846e+01  1.0102134847151527e+01  1.0075548489679861e+01  1.0084224192417620e+01  1.0082972006433620e+01  1.0090622226468655e+01  1.0091829695929665e+01  1.0092909247994836e+01  1.0118799013890326e+01  1.0099582596512167e+01  1.0100566865730203e+01  1.0108394727070571e+01  1.0120132469575024e+01  1.0093157097806978e+01  1.0111002962491376e+01  1.0100913792905081e+01  1.0091767879347705e+01  1.0101741054819920e+01  1.0084197742927945e+01  1.0064911409916759e+01  1.0075122402520332e+01  1.0073991753918982e+01  1.0081443042246462e+01  1.0082566582722306e+01  1.0072115178569488e+01  1.0066738119878675e+01  1.0087106215592998e+01  1.0079512642438164e+01  1.0090112278029148e+01  1.0089076793858332e+01  1.0097834775682491e+01  1.0116007924536330e+01  1.0105580693784775e+01  1.0096315327104344e+01  1.0102156145676686e+01  1.0106690750518604e+01  1.0125173231354550e+01  1.0111749159435279e+01  1.0114695483307507e+01  1.0121190479826289e+01  1.0097240615385738e+01  1.0112564915950003e+01  1.0105887365867680e+01  1.0117002875995539e+01  1.0107257685185340e+01  1.0101028875952897e+01  1.0110418847544350e+01  1.0099447113214911e+01  1.0093186011797027e+01  1.0104033790198118e+01  1.0094971324648517e+01  1.0079132132223274e+01  1.0064998186538789e+01  1.0077975809636769e+01  1.0070409002956557e+01  1.0061520344938794e+01  1.0068867526572822e+01  1.0055955928582177e+01  1.0059603244066574e+01  1.0048079602140259e+01  1.0050083757089844e+01  1.0063427228911097e+01  1.0053988025719812e+01  1.0061430774421476e+01  1.0074442703229430e+01  1.0066920220391722e+01  1.0076422473654292e+01  1.0083433914386907e+01  1.0086279457511486e+01  1.0087886193124820e+01  1.0082079720704478e+01  1.0080284728029035e+01  1.0092279602987729e+01  1.0068834767514797e+01  1.0067033914398820e+01  1.0072771386544421e+01  1.0053573577401453e+01  1.0102499329834201e+01  1.0092500789759455e+01  1.0096052306337121e+01  1.0076618635185458e+01  1.0082611505694075e+01  1.0071898955827471e+01  1.0072797426881881e+01  1.0066814165179748e+01  1.0053409142542520e+01  1.0086099277409403e+01  1.0079864345542987e+01  1.0082382408315556e+01  1.0125011873405068e+01  1.0115888371342358e+01  1.0134423862884994e+01  1.0139862220069565e+01  1.0130421766524758e+01  1.0120823955275771e+01  1.0129084380332541e+01  1.0669447999151213e+01  1.0655091774867342e+01  1.0681218380761905e+01  1.0680204700874713e+01  1.0690415088941295e+01  1.0665061295662179e+01  1.0690936700279533e+01  1.0690616492865203e+01  1.0665154741582121e+01  1.0640196230565536e+01  1.0671134757393803e+01  1.0671689847553413e+01  1.0655657972588076e+01  1.0681268996707603e+01  1.0644693946220984e+01  1.0630471461868090e+01  1.0645920592432020e+01  1.0620460131125061e+01  1.0669441335418888e+01  1.0655185902421142e+01  1.0644683469791149e+01  1.0671133096463837e+01  1.0630515579841969e+01  1.0645917947401356e+01  1.0620450269232581e+01  1.0680361033395508e+01  1.0709658904310148e+01  1.0674683680570274e+01  1.0700394198541032e+01  1.0700239406868596e+01  1.0572456451567959e+01  1.0606215714567533e+01  1.0596505670652707e+01  1.0621120677477887e+01  1.0596514394295532e+01  1.0297244132912661e+01  1.0276323412486146e+01  1.0298065230490545e+01  1.0282308425659295e+01  1.0267017214966538e+01  1.0261066090428976e+01  1.0282242986241018e+01  1.0298478122266802e+01  1.0276394925850871e+01  1.0254572667946681e+01  1.0239174108763487e+01  1.0260427383691434e+01  1.0245785237059602e+01  1.0236766577158944e+01  1.0266413833164568e+01  1.0250606778214147e+01  1.0281914053609464e+01  1.0251723108226772e+01  1.0298020396596931e+01  1.0276082462966809e+01  1.0275050325281001e+01  1.0281111168583076e+01  1.0253950644059584e+01  1.0298478328299744e+01  1.0232065952603655e+01  1.0384567639223265e+01  1.0362585614952538e+01  1.0385542266947718e+01  1.0363997105861745e+01  1.0342762610239166e+01  1.0341229602571103e+01  1.0364397000371989e+01  1.0386285066878619e+01  1.0362356975490254e+01  1.0338734655649681e+01  1.0362697431673752e+01  1.0339844441676432e+01  1.0341753740520263e+01  1.0340611551409179e+01  1.0320328995882941e+01  1.0319693787038345e+01  1.0298140732092916e+01  1.0386630029760131e+01  1.0361700049451599e+01  1.0364463556707326e+01  1.0363867301266927e+01  1.0341845598841847e+01  1.0340304389960860e+01  1.0342521846503374e+01  1.0386663368909248e+01  1.0319135760301608e+01  1.0320806110077552e+01  1.0320011052211630e+01  1.0298174545561674e+01  9.9760517421553008e+00  9.9941669962563306e+00  9.9903092334559513e+00  1.0007515429784126e+01  9.9910078093050281e+00  9.9747511685342261e+00  9.9580501068852669e+00  1.0559804985009583e+01  1.0562907713447862e+01  1.0593755672777645e+01  1.0594166954333717e+01  1.0630629788300814e+01  1.0598628678545401e+01  1.0630787244149845e+01  1.0629997574416107e+01  1.0597872371186805e+01  1.0566045344596569e+01  1.0635079646436191e+01  1.0676495508101928e+01  1.0642496641129107e+01  1.0603133503026191e+01  1.0641884477872400e+01  1.0601979972502525e+01  1.0636289320632695e+01  1.0711502454839085e+01  1.0712140634933874e+01  1.0677153283641962e+01  1.0669811812601576e+01  1.0670010886764576e+01  1.0668544402545614e+01  1.0636486265492239e+01  1.0676613997261702e+01  1.0711609637981386e+01  1.0669140240919791e+01  1.0569214797225300e+01  1.0607788848235430e+01  9.9741077020321001e+00  1.0470458382872813e+01  1.0450124133683346e+01  1.0472891100553149e+01  1.0472072855476274e+01  1.0472741078734654e+01  1.0450658684423901e+01  1.0473995132228554e+01  1.0475143285139897e+01  1.0451359802037667e+01  1.0427880095726412e+01  1.0448804606027172e+01  1.0426996428747707e+01  1.0427588913466906e+01  1.0449676411796105e+01  1.0471024283806292e+01  1.0472968687972287e+01  1.0450188681020389e+01  1.0474021859389994e+01  1.0475613203837582e+01  1.0451268131299470e+01  1.0474938897953558e+01  1.0449223539195046e+01  1.0472361551124710e+01  1.0449817028057332e+01  1.0427270525527518e+01  1.0427625711768840e+01  1.0405348058273153e+01  1.0405541268163907e+01  1.0427352626421921e+01  1.0405413900650620e+01  1.0478797063899782e+01  1.0476872361138689e+01  1.0452259197735865e+01  1.0477120593574419e+01  1.0641509771163841e+01  1.0640933025123832e+01  1.0665913334747275e+01  1.0680847096190679e+01  1.0655197569255808e+01  1.0655484096393712e+01  1.0654756286578365e+01  1.0680560729520995e+01  1.0627774700948162e+01  1.0604649196412407e+01  1.0617434680596359e+01  1.0617410753123762e+01  1.0581845993510372e+01  1.0695444176702104e+01  1.0696152233194301e+01  1.0695753172384830e+01  1.0559357644515798e+01  1.0561009836402402e+01  1.0562952072121915e+01  1.0539451092329278e+01  1.0517576035024609e+01  1.0539964393751019e+01  1.0541793562031238e+01  1.0566362375898496e+01  1.0564048964424090e+01  1.0561660723895635e+01  1.0537040592893696e+01  1.0516235319920607e+01  1.0537928670758266e+01  1.0514599312242737e+01  1.0564032219449821e+01  1.0539438763666809e+01  1.0566796906115819e+01  1.0541650327226208e+01  1.0561246539899306e+01  1.0537390439098287e+01  1.0516237504757095e+01  1.0514817880722523e+01  1.0538042064711076e+01  1.0514970121592411e+01  1.0492546431431432e+01  1.0493354471857057e+01  1.0492454180095567e+01  1.0569533313876434e+01  1.0543838844625611e+01  1.0747756486556653e+01  1.0738957815101081e+01  1.0722810153002980e+01  1.0749245461788624e+01  1.0749704910495021e+01  1.0713753039214264e+01  1.0739897552960656e+01  1.0723639551433862e+01  1.0698210718846710e+01  1.0729795452683778e+01  1.0739730132976907e+01  1.0730088605571241e+01  1.0704270236507730e+01  1.0714093516332065e+01  1.0749182131182490e+01  1.0723610599085557e+01  1.0688982419219693e+01  1.0698504732222839e+01  1.0674077974039502e+01  1.0720121509721377e+01  1.0747829349346784e+01  1.0722812418679082e+01  1.0749338539823317e+01  1.0738854889988131e+01  1.0729587066403511e+01  1.0713612509860479e+01  1.0739875482199530e+01  1.0749809797122250e+01  1.0723655521043328e+01  1.0698136218898455e+01  1.0713422417593357e+01  1.0739787072843075e+01  1.0738538780628179e+01  1.0729193830448720e+01  1.0703871635337206e+01  1.0730023576310110e+01  1.0704052378001489e+01  1.0678976578583502e+01  1.0722774083507007e+01  1.0714026849497104e+01  1.0688706916596947e+01  1.0698105836311395e+01  1.0749308379175018e+01  1.0723640678341143e+01  1.0650633364387181e+01  1.0673937272671933e+01  1.0664498658872303e+01  1.0688801954147467e+01  1.0698446164371283e+01  1.0673937605154411e+01  1.0693998658423396e+01  1.0719874908979119e+01  1.0719578610210768e+01  1.0043423695716420e+01  1.0049127193809314e+01  1.0043785144082086e+01  1.0040858884575645e+01  1.0025976302723738e+01  1.0028703535389671e+01  1.0046712612814874e+01  1.0037796752764589e+01  1.0031486547823752e+01  1.0593644828291158e+01  1.0562475319597734e+01  1.0565620738614792e+01  1.0566472817010247e+01  1.0598121303353588e+01  1.0630114072111454e+01  1.0598093142059776e+01  1.0635307038416608e+01  1.0676173970300944e+01  1.0641955694688390e+01  1.0602255225197606e+01  1.0602973635036696e+01  1.0641677804458123e+01  1.0635969096492706e+01  1.0602616515005527e+01  1.0668720229183243e+01  1.0571982591662456e+01  1.0570049376271868e+01  1.0573758937905822e+01  1.0607247024546814e+01  1.0570307867210099e+01  1.0608012611852596e+01  1.0574425789327385e+01  1.0568775756561296e+01  1.0573993130495916e+01  1.0607673475658435e+01  9.9756745384528607e+00  9.9785913062032670e+00  9.9602904466847448e+00  9.9858953654849945e+00  9.9967819127082524e+00  1.0450991389290484e+01  1.0430278020555237e+01  1.0452469416172205e+01  1.0429600479726748e+01  1.0428968093386208e+01  1.0407130346243578e+01  1.0406976388469401e+01  1.0408175693764610e+01  1.0455091317643378e+01  1.0453911218394294e+01  1.0430146825207482e+01  1.0431242447775865e+01  1.0432142696556470e+01  1.0408284425119621e+01  1.0409425191847022e+01  1.0408839291117401e+01  1.0165165500215593e+01  1.0160687875800956e+01  1.0175329028011793e+01  1.0153068568623693e+01  1.0140318616364892e+01  1.0148246508530823e+01  1.0162988464241874e+01  1.0186113938802558e+01  1.0171058911357429e+01  1.0156012133994214e+01  1.0145996558723393e+01  1.0137829066387553e+01  1.0153515952915720e+01  1.0143190429383770e+01  1.0135101352113365e+01  1.0149934820824143e+01  1.0160058770955548e+01  1.0144974298452713e+01  1.0129628073886419e+01  1.0151123859024276e+01  1.0166595110440529e+01  1.0121257835481082e+01  1.0136328125609472e+01  1.0126848595842102e+01  1.0141669673503559e+01  1.0151608655331163e+01  1.0137150544756700e+01  1.0146661660925604e+01  1.0127341396707418e+01  1.0117365132864425e+01  1.0136529471358061e+01  1.0146726380716146e+01  1.0137971175091097e+01  1.0111045030211704e+01  1.0114167839121697e+01  1.0119662680133276e+01  1.0128254532605354e+01  1.0122942521190017e+01  1.0156393543727932e+01  1.0147337818110596e+01  1.0132737952161882e+01  1.0142368648430852e+01  1.0129070407960755e+01  1.0123663638897854e+01  1.0132991952259298e+01  1.0138150074805559e+01  1.0120188744483109e+01  1.0104523152232273e+01  1.0110084955583554e+01  1.0101763747151349e+01  1.0131133540673003e+01  1.0141474425631939e+01  1.0128880099319360e+01  1.0134159404271603e+01  1.0115550341281283e+01  1.0121078725146289e+01  1.0109831236236516e+01  1.0123323588680954e+01  1.0115366729616898e+01  1.0191012089085847e+01  1.0195002128260835e+01  1.0171340311591084e+01  1.0175772482845364e+01  1.0185139227662971e+01  1.0181050088942024e+01  1.0176771049450304e+01  1.0170933031746523e+01  1.0166464709156228e+01  1.0156787458283715e+01  1.0161543369622008e+01  1.0166065548088049e+01  1.0156721169826598e+01  1.0175119700240350e+01  1.0151999824237784e+01  1.0161790375157324e+01  1.0191645805264296e+01  1.0171404596273433e+01  1.0151516417778874e+01  1.0192333431611427e+01  1.0192960352655343e+01  1.0171494643816025e+01  1.0177446743037219e+01  1.0177074325990116e+01  1.0161903897170681e+01  1.0156497969512071e+01  9.9744943202432115e+00  9.9753285359571802e+00  1.0008772565225136e+01  9.9896331303419323e+00  9.9568089134317574e+00  9.9949938243325640e+00  9.9934493897267895e+00  9.9586207046533524e+00  9.9773248161403654e+00  9.9786018991153966e+00  9.9257682147170456e+00  9.9253856915401073e+00  9.9419966859250852e+00  9.9587528118953390e+00  9.9427404601824421e+00  9.9600500907816212e+00  9.9246287536210218e+00  1.0563145185574641e+01  1.0598290276352458e+01  1.0566630364223281e+01  1.0566252016352477e+01  1.0635427619411280e+01  1.0603144622141192e+01  1.0570187610310635e+01  1.0573888187284778e+01  1.0608171631852464e+01  1.0574221853194889e+01  1.0006703687924460e+01  9.9915819806318318e+00  9.9733865706786080e+00  1.0455246100540048e+01  1.0480501222119726e+01  1.0454166447009637e+01  1.0430262302183554e+01  1.0431504776862546e+01  1.0454630238039121e+01  1.0481166484864044e+01  1.0456610397759089e+01  1.0432443122713543e+01  1.0478123249674386e+01  1.0452554443422619e+01  1.0387191649088958e+01  1.0409860892765794e+01  1.0433296632624561e+01  1.0409108926701119e+01  1.0028782523320636e+01  1.0011279013496635e+01  1.0034318004907538e+01  1.0015622702200183e+01  1.0120159651338772e+01  1.0111012640616137e+01  1.0109779474052951e+01  1.0102097822874660e+01  1.0092527119450441e+01  1.0091308574207833e+01  1.0101726434568622e+01  1.0084108102392355e+01  1.0075449382216348e+01  1.0082647663079483e+01  1.0093081444893878e+01  1.0100591869836713e+01  1.0090022973446619e+01  1.0084149599747940e+01  1.0066662362583497e+01  1.0091656151810982e+01  1.0073823184789696e+01  1.0099279513143518e+01  1.0081134927166353e+01  1.0088624427321154e+01  1.0385324050790668e+01  1.0362435276423106e+01  1.0386392038975073e+01  1.0386327190458649e+01  1.0386745487208488e+01  1.0362432517218185e+01  1.0338842546470488e+01  1.0362313214936549e+01  1.0386059559920430e+01  1.0362642650717532e+01  1.0385924828109808e+01  1.0386343617394045e+01  1.0362932853025370e+01  1.0363244257752291e+01  1.0340493676777829e+01  1.0339736889578894e+01  1.0386409066239128e+01  1.0317331603709505e+01  1.0318565433762181e+01  1.0340559081225482e+01  1.0386681727514144e+01  1.0362020442472666e+01  1.0386943466589335e+01  1.0115742346169666e+01  1.0106303031078063e+01  1.0082776168526266e+01  1.0092325010268475e+01  1.0101648539056399e+01  1.0111367471488856e+01  1.0101774534979084e+01  1.0110879095700168e+01  1.0097156113495299e+01  1.0087866688682677e+01  1.0092703757357077e+01  1.0078851732602391e+01  1.0069722295459215e+01  1.0082875788627749e+01  1.0073586160240547e+01  1.0074817157449422e+01  1.0087224801682350e+01  1.0106757107793587e+01  1.0091837821127271e+01  1.0096958554151543e+01  1.0087037121848820e+01  1.0081795985232755e+01  1.0077579375295620e+01  1.0102004884039520e+01  1.0106532394432564e+01  1.0097168627743713e+01  1.0092240982346983e+01  1.0088078615712959e+01  1.0093002210940231e+01  1.0083962123381271e+01  1.0129055489798786e+01  1.0119330787572387e+01  1.0126719829317381e+01  1.0123041124021075e+01  1.0118571260209949e+01  1.0104896582272289e+01  1.0100093249703415e+01  1.0108066899497564e+01  1.0137609884768354e+01  1.0114972213119499e+01  1.0110315953342544e+01  1.0129199786855585e+01  1.0133268467611709e+01  1.0111746945917229e+01  1.0120627979511360e+01  1.0101757756465901e+01  1.0124913014501724e+01  1.0116417125211774e+01  1.0089764673088837e+01  1.0109659489057380e+01  1.0099831571710826e+01  1.0112855158168600e+01  1.0094873999967703e+01  1.0013018450449488e+01  1.0037323576764470e+01  1.0040528466309780e+01  1.0053192001962390e+01  1.0015553769898235e+01  1.0017377579143981e+01  1.0002038169913618e+01  1.0019677355645534e+01  1.0010956996448723e+01  1.0013160079639739e+01  1.0008571668073040e+01  1.0010443705544336e+01  1.0023293404686179e+01  1.0046230967616289e+01  9.9899984295903383e+00  1.0033637067657656e+01  1.0031172002549466e+01  9.9931333170499723e+00  1.0015271610272141e+01  9.9424673450377767e+00  9.9601708340752158e+00  9.9580448905659686e+00  9.9780610504451364e+00  9.9249679435012546e+00  9.9736951882032194e+00  1.0006883822223154e+01  1.0631596895350508e+01  1.0620610314107264e+01  1.0655771651528854e+01  1.0597239471904826e+01  1.0297511988129983e+01  1.0298449262976039e+01  1.0275936967187201e+01  1.0297535182273350e+01  1.0296972145248100e+01  1.0275338898699227e+01  1.0274249429810988e+01  1.0298700403048134e+01  1.0299442380287294e+01  1