<?xml version="1.0"?>
<VTKFile type="UnstructuredGrid"  version="0.1"  >
<UnstructuredGrid>
<Piece  NumberOfPoints="4738" NumberOfCells="21569">
<Points>
<DataArray  type="Float64"  NumberOfComponents="3"  format="ascii">42.155658 8.287715 35.919553  39.53556500000001 8.21283375 36.57341475  38.5157795 8.943294999999999 35.266207  40.66314850000001 7.868827250000001 35.40606975  41.0280745 8.631721500000001 37.08689800000001  39.643363 8.5992885 34.098862  39.900491 8.975728 38.254243  37.131068 8.910862 32.278171  38.1508535 8.18040075 33.58537875  39.170639 7.4499395 34.8925865  38.0430555 7.793946 36.0599315  36.658344 7.761513 33.0718955  36.18562 6.612164 33.86562  37.6781295 7.03105175 34.37910325  44.123606 7.725932 33.606806  42.77228925 7.30683475 32.96837225  43.2704115 6.62819525 32.41406775  43.91058975 7.134262 33.99022024999999  43.6975735 6.542592 34.37363449999999  42.559273 6.71516475 33.3517865  43.05739525 6.03652525 32.797482  42.417217 5.5304585 31.2213295  41.91909475 6.209098 31.775634  41.4209725 6.8877375 32.3299385  43.271541 5.359252 35.140463  42.34625675 6.12349475 33.73520075  42.844379 5.44485525 33.18089625  40.99494 5.7043975 33.096767  38.718339 6.049543 31.053071  40.06965575 6.46864025 31.69150475  40.567778 5.79000075 31.13720025  43.48455725 5.950922 34.75704875  45.607549 4.873927 32.127813  45.02354699999999 4.99525825 32.88097550000001  45.23656325 5.58692825 32.49756125  44.012383 5.20219275 31.67457125  43.428381 5.323524 32.42773375  43.64139725 5.915194 32.0443195  44.8655775 6.2999295 32.8673095  44.65256125 5.7082595 33.25072375000001  44.439545 5.1165895 33.634138  44.2815755 6.42126075 33.620472  44.06855925 5.829590749999999 34.00388624999999  44.49459175 7.012930750000001 33.23705775000001  43.855543 5.23792075 34.38730049999999  44.382333 5.580952 31.09427275  44.01134725 6.293953249999999 31.464021  42.787167 5.90921775 30.641031  43.157117 6.287977 30.0607325  43.6403615 7.0069545 31.83376925  43.26937575 7.71995575 32.2035175  42.41618125 6.622219 31.01077925  42.4151455 7.713979500000001 30.800229  42.78613125 7.00097825 30.43048075  40.710828 3.334985 28.835853  41.9339725 4.811481 29.44829275  40.70979225 4.4267455 28.62530275  41.5640225 4.43272175 30.02859125  41.56298675 5.52448225 29.818041  40.7087565 5.518506 28.4147525  41.93293675 5.9032415 29.2377425  40.706685 7.702027 27.993652  41.931901 6.995001999999999 29.02719225  40.70772075 6.6102665 28.20420225  41.561951 6.61624275 29.60749075  41.56091525 7.708003250000001 29.3969405  41.918059 7.3008585 31.56508375  39.7145835 4.692264 29.944462  39.71354775 5.7840245 29.73391175  39.712512 6.875785 29.5233615  40.56674225 6.88176125 30.92665  41.29632825 7.728172000000001 34.7029325  38.78403325 8.0397455 32.8822415  39.80381875 7.30928425 34.18944925  40.4369985 7.168629 33.486312  38.944489 6.74974125 32.97282875  37.4519795 6.3308535 32.4593455  37.9247035 7.4802025 31.665621  39.57766875 6.609086 32.2696915  41.569824 8.294773750000001 34.215979  39.057529 8.606347249999999 32.395288  40.71049425 7.735230749999999 32.9993585  40.98399 8.3018325 32.512405  39.8511645 7.17568775 31.782738  42.553798 8.01388225 33.0596055  42.28030225000001 7.4472805 33.546559  43.13963200000001 8.006823499999999 34.7631795  43.41312775 8.57342525 34.27622599999999  40.9289855 7.02818325 32.90812525  41.20248125000001 7.594785 32.42117175  43.90511475 8.4329795 33.69803924999999  40.348251 7.58880875 31.01788325  38.7217335 8.383779499999999 30.405116  41.34242399999999 8.415050750000001 29.48817375  41.978163 9.1280745 30.9826955  41.4810765 8.7149535 31.74755025  51.290667 6.627093 21.479039  50.4684835 5.53943 21.69504775  50.741257 5.81372125 21.01593  51.29180825 5.8077255 21.66344  51.2929495 4.988358 21.847841  50.46962474999999 4.7200625 21.87944875  50.74239824999999 4.99435375 21.200331  50.191847 5.0003495 20.552821  49.9190735 4.72605825 21.23193875  49.6463 4.451767 21.9110565  51.0178935 6.35280175 22.15815675  50.19571 5.26513875 22.3741655  51.01903475 5.53343425 22.34255775  50.74512 6.0785105 22.8372745  51.295232 3.349623 22.216643  50.470766 3.900695 22.06384975  50.74468075 3.35561875 21.569133  50.7435395 4.17498625 21.384732  50.19298825 4.180982 20.737222  50.1941295 3.3616145 20.921623  49.92021475 3.90669075 21.41633975  51.02131725 3.89469925 22.71135975  51.29409075 4.1689905 22.032242  51.020176 4.71406675 22.52695875  50.7474025 4.4397755 23.2060765  50.19685124999999 4.44577125 22.5585665  50.199573 5.529928 24.19551  49.9229365 4.9908475 23.05328325  50.47348775 4.98485175 23.70079325  50.74626125 5.259143 23.0216755  50.4723465 5.80421925 23.51639225  49.093027 3.373606 19.626603  49.3696635 3.9126865 20.76882975  49.64357825 3.36761025 20.274113  49.642437 4.18697775 20.089712  52.226008 4.497148 19.703294  51.44276375 4.94652975 19.500829  51.44276275 4.2162625 19.68412125  51.2089275 4.748748750000001 20.1280575  50.6595185 4.66564425 19.48165625  50.42568325 5.1981305 19.9255925  50.42568224999999 4.467863250000001 20.10888475  50.6595175 3.935377 19.6649485  50.6595195 5.3959115 19.298364  51.99217274999999 5.029634250000001 20.14723025  51.2089285 5.479016000000001 19.94476525  50.97509225 5.281235000000001 20.57199375  51.7583375 5.562120500000001 20.5911665  50.97509325 6.01150225 20.3887015  50.741258 6.5439885 20.83263775  50.191848 5.73061675 20.36952875  50.191849 6.460884 20.1862365  50.42568425 5.92839775 19.74230025  51.52450225 6.094606750000001 21.03510275  49.093031 6.294675 18.893434  49.87627525000001 5.84529325 19.095899  49.09303 5.56440775 19.07672625  49.642439 5.64751225 19.7231275  49.642438 4.917245 19.90641975  49.093029 4.8341405 19.2600185  49.87627425 5.115026 19.27919125  49.64244000000001 6.3777795 19.53983525  49.87627325 4.38475875 19.4624835  49.093028 4.10387325 19.44331075  49.87627225 3.6544915 19.64577575  45.989047 8.026584 17.904789  46.255188 7.96962875 19.19345375  46.51011575 8.1288695 18.5269845  45.4794585 8.4712 18.8949775  45.73411925 7.867343249999999 18.57125825  44.96987 8.915816 19.885166  46.00052725 8.5734855 19.517173  45.22453075 8.311959249999999 19.56144675  45.4791915 7.7081025 19.2377275  47.03118449999999 8.231155000000001 19.14918  44.969336 7.389621 20.570666  46.00026025 7.810388000000001 19.859923  45.22426375 7.54886175 19.90419675  44.969603 8.152718499999999 20.227916  52.226008 7.383542 18.812959  51.44276375 7.11132525 18.83307775  51.44276375 6.38972675 19.0556615  51.2089285 6.922213 19.49959775  50.6595195 6.11751 19.07578025  50.42568425 6.64999625 19.5197165  50.6595195 6.8391085 18.8531965  51.99217274999999 7.19442975 19.479479  51.2089285 6.2006145 19.7221815  50.97509325 6.73310075 20.16611775  51.7583375 7.0053175 20.145999  52.226008 6.6619435 19.03554275  51.99217274999999 6.47283125 19.70206275  51.44276375 5.668128250000001 19.27824525  52.226008 5.940345000000001 19.2581265  52.226008 5.2187465 19.48071025  51.99217274999999 5.751232750000001 19.9246465  51.52450225 6.81620525 20.812519  51.7583375 6.283719 20.36858275  49.87627525000001 6.56689175 18.87331525  50.4684845 6.26969725 21.5117555  49.9190745 5.4563255 21.0486465  49.646301 5.18203425 21.72776425  49.64630200000001 5.9123015 21.544472  50.195711 5.995406 22.19087325  49.91907550000001 6.18659275 20.86535425  49.9229375 5.72111475 22.869991  49.36966650000001 6.10348825 20.218953  49.3696655 5.373221 20.40224525  49.3696645 4.64295375 20.5855375  41.921994 9.23193625 28.391848  41.92702625 8.1820165 28.76194325  41.55935075 8.93661075 29.01817825  43.1473675 8.662006 29.5302345  48.907525 4.072746 26.971591  46.89249624999999 3.86328775 27.44088175  47.2483425 3.2903045 26.91823775  47.6264915 3.7473175 26.225234  46.345458 3.421889 25.478877  45.61146275 3.53785925 26.69452475  45.967309 2.964876 26.17188075  45.58916 2.507863 26.8648845  45.23331374999999 3.08084625 27.3875285  44.87746749999999 3.6538295 27.9101725  47.27064525 4.32030075 26.747878  45.98961174999999 3.99487225 26.001521  45.6337655 4.5678555 26.524165  45.2556165 4.1108425 27.21716875  48.529376 3.615733000000001 27.66459475  48.151227 3.15872 28.3575985  46.51434725 3.40627475 28.1338855  46.8701935 2.8332915 27.6112415  47.394929 2.244694 29.743606  46.13619824999999 2.94926175 28.82688925  46.4920445 2.3762785 28.30424525  47.773078 2.701707 29.05060225  43.783391 2.771032 23.986163  43.42754475 3.34401525 24.508807  44.33042924999999 3.21243075 25.94816775  44.70857825 3.66944375 25.255164  43.974583 3.785414 26.47081175  44.352732 4.242427 25.777808  43.0716985 3.9169985 25.031451  44.6862755 2.6394475 25.42552375  45.0644245 3.0964605 24.73252  42.360006 5.062965 26.076739  42.71585225 4.48998175 25.554095  43.61873675 4.35839725 26.99345575  43.99688575 4.81541025 26.300452  50.193706 1.861294 24.761411  48.88779775 1.6054015 24.0310875  49.918536 1.48977825 23.5487835  49.91853625 2.239372 23.477709  49.6433665 2.61745 22.194007  48.612628 1.9834795 22.7473855  49.64336625 1.86785625 22.2650815  49.643366 1.1182625 22.336156  48.61262775 1.23388575 22.81846  47.5818895 1.349509 23.300764  48.33745825 2.3615575 21.4636835  48.06228849999999 2.7396355 20.1799815  49.09302675 2.62401225 19.6976775  49.0930265 1.8744185 19.768752  48.337458 1.61196375 21.534758  48.06228824999999 1.99004175 20.251056  47.03155 2.105665 20.73336  47.30671975 1.727587 22.017062  49.36819675 2.995528 20.910305  49.3681965 2.24593425 20.9813795  49.093026 0.375231 19.910901  48.06228775 0.49085425 20.393205  48.33745775 0.8623700000000001 21.6058325  48.062288 1.240448 20.3221305  47.03154975 1.35607125 20.8044345  47.3067195 0.97799325 22.0881365  47.0315495 0.6064775 20.875509  49.09302625 1.12482475 19.8398265  49.36819625 1.4963405 21.052454  49.368196 0.74674675 21.1235285  44.970073 0.837724 21.840117  46.00081125 0.7221007500000001 21.357813  46.27598125 1.0936165 22.5704405  46.0008115 1.4716945 21.2867385  50.469299 2.23394275 22.2763995  50.46929925 2.9835365 22.205325 
[...]
<PointData  Scalars="p"> 
<DataArray  type="Float64"  Name="p"  format="ascii">8.5385015777312017e+00  8.5881824311879829e+00  8.5859321484481175e+00  8.5508641655596218e+00  8.5752416163606107e+00  8.5474314392995279e+00  8.6108049599918246e+00  8.5574319811499588e+00  8.5604649680628739e+00  8.5637729079233917e+00  8.6016989815692142e+00  8.5741713755844646e+00  8.5915660486860670e+00  8.5772997474392465e+00  8.4669078929016166e+00  8.4734145957172764e+00  8.4524554674975469e+00  8.4746548340628198e+00  8.4826829294108315e+00  8.4814833701313006e+00  8.4608996757961066e+00  8.4374061874884152e+00  8.4589953969649176e+00  8.4803244015677386e+00  8.4990828880562859e+00  8.4897387394901109e+00  8.4695351241616006e+00  8.4972263321813895e+00  8.4953460717264679e+00  8.4876371609098822e+00  8.4659359051992613e+00  8.4908752540730408e+00  8.4054468361675969e+00  8.4293858450151831e+00  8.4206399705189714e+00  8.4210142018266527e+00  8.4455614717499898e+00  8.4367272509713942e+00  8.4361877645082277e+00  8.4445653774697682e+00  8.4533020045762477e+00  8.4597457517981631e+00  8.4681142974889276e+00  8.4517431576879769e+00  8.4766864176432879e+00  8.4046337845530861e+00  8.4208030112987178e+00  8.4209583595540565e+00  8.4044030765470126e+00  8.4369665740414987e+00  8.4530987898852885e+00  8.4374759142437092e+00  8.4383654791551432e+00  8.4214027889379501e+00  8.4058072295558102e+00  8.4043375817734169e+00  8.4043470702679315e+00  8.4218472333725831e+00  8.4212079750914981e+00  8.4039315298238133e+00  8.4041055080314457e+00  8.4061117753685188e+00  8.4048080254745017e+00  8.4044434523944069e+00  8.4215153665871032e+00  8.4227010841290326e+00  8.4594587919991326e+00  8.4511152209730938e+00  8.4504334355587130e+00  8.4512176765965741e+00  8.4662138313062254e+00  8.5287805440675033e+00  8.5372366723700441e+00  8.5412922672066500e+00  8.5183622120695635e+00  8.5310968691064453e+00  8.5444677083480389e+00  8.5263187672145389e+00  8.5072485580743731e+00  8.5184646401250603e+00  8.5266301159328570e+00  8.5075336153151131e+00  8.4968414741671054e+00  8.4958676970579354e+00  8.4814888704515727e+00  8.4921714114575426e+00  8.5032808122013286e+00  8.4930155693678788e+00  8.4995080851319251e+00  8.4884834622000529e+00  8.4748554615074205e+00  8.4748588384145602e+00  8.4932758413352296e+00  8.4322424326844381e+00  8.4565045077732162e+00  8.4767597294975729e+00  8.0662210774099350e+00  8.0734878920143327e+00  8.0531254080943988e+00  8.0648158358432145e+00  8.0642587379744928e+00  8.0732213030232121e+00  8.0523591018364300e+00  8.0381321231716303e+00  8.0595832441048785e+00  8.0816976939573433e+00  8.0859024157290946e+00  8.0945549674823720e+00  8.0850879922226468e+00  8.1064293043302040e+00  8.0658617765269742e+00  8.0738881527554991e+00  8.0537741681341988e+00  8.0525783697698650e+00  8.0381283928304157e+00  8.0392757502844390e+00  8.0601366423328962e+00  8.0856086257096980e+00  8.0646259066694075e+00  8.0849965074671672e+00  8.1062464894742625e+00  8.0947286238691269e+00  8.1479613914453584e+00  8.1160203251889840e+00  8.1272161727646814e+00  8.1060537494174234e+00  8.1273164052718680e+00  7.9999999999999991e+00  8.0439307855704776e+00  8.0216826309623759e+00  8.0207954582639527e+00  8.0000000000000000e+00  8.0000000000000000e+00  8.0000000000000000e+00  8.0165776014953867e+00  8.0000000000000000e+00  8.0187819258066284e+00  8.0189097748920268e+00  8.0000000000000000e+00  8.0000000000000000e+00  8.0128021401328997e+00  8.0168139785205668e+00  8.0343387316191759e+00  8.0292736971992671e+00  8.0349444760999003e+00  8.0540414507266131e+00  8.0383841833300700e+00  8.0394585245744921e+00  8.0193834879468007e+00  8.0474325332597889e+00  8.0000000000000000e+00  7.9999999999999991e+00  8.0000000000000000e+00  8.0206913629092984e+00  8.0204478016873662e+00  8.0000000000000000e+00  8.0000000000000000e+00  8.0217803335238287e+00  8.0000000000000000e+00  8.0000000000000000e+00  7.9999999999999991e+00  7.9999999999999991e+00  8.0609957091393643e+00  8.0313290317590109e+00  8.0718646766610700e+00  8.0416298213099164e+00  8.1244380696910135e+00  8.0879957544155676e+00  8.0990360981547020e+00  8.0723096988180991e+00  8.0536513838153798e+00  8.1269026531815047e+00  8.0889196992594883e+00  8.1001749845566646e+00  8.1250656147843472e+00  8.0000000000000000e+00  8.0000000000000000e+00  7.9999999999999991e+00  8.0169611053069616e+00  8.0000000000000000e+00  8.0195552271905672e+00  8.0000000000000000e+00  8.0127958442010758e+00  8.0165953532666485e+00  8.0349709129129110e+00  8.0292956425921105e+00  8.0000000000000000e+00  8.0125161299088923e+00  7.9999999999999991e+00  7.9999999999999991e+00  7.9999999999999991e+00  8.0125159068706218e+00  8.0474100331149980e+00  8.0290660372258955e+00  7.9999999999999991e+00  8.0739463215551961e+00  8.0593644918924561e+00  8.0810114964587285e+00  8.0811215356439678e+00  8.0945569433261451e+00  8.0599587693405184e+00  8.1156352626754238e+00  8.0434717681094163e+00  8.0427609297227800e+00  8.0429059943336547e+00  8.4048985444398170e+00  8.4059008447607937e+00  8.4221190112455186e+00  8.4059459244340484e+00  8.2338996086049843e+00  8.2751349098599629e+00  8.2543063412340008e+00  8.2318377255590764e+00  8.2292655078488579e+00  8.2742052728243696e+00  8.2527488540998846e+00  8.2759834579571621e+00  8.2966829286037758e+00  8.3171935517949862e+00  8.2533329096038059e+00  8.2515053440447517e+00  8.2735035997456894e+00  8.2954466503512130e+00  8.2553683920445966e+00  8.2771410012656190e+00  8.2967902883042743e+00  8.2766378056099636e+00  8.3196160074659087e+00  8.3182339462313308e+00  8.2987471995205588e+00  8.2987216614197781e+00  8.2240763237263046e+00  8.2480609155214744e+00  8.2732498877638516e+00  8.2495643448379816e+00  8.2951069989071069e+00  8.2722786678215385e+00  8.2712295822107080e+00  8.2511249107926705e+00  8.2265038649845010e+00  8.3169797030276733e+00  8.2940483848838529e+00  8.3166943254455266e+00  8.2946714184418493e+00  8.1483823123056620e+00  8.1446378827082615e+00  8.1163283841758442e+00  8.1159740651815611e+00  8.0813658666453296e+00  8.1090264446817706e+00  8.0812332209441244e+00  8.0818972074795106e+00  8.1096147717165739e+00  8.1389609973447943e+00  8.0695407341188989e+00  8.0242682043359004e+00  8.0000000000000000e+00  7.9999999999999991e+00  8.0696184694772928e+00  8.0238472846139999e+00  8.0534934409058074e+00  8.0993391393877801e+00  8.0436050188047581e+00  8.0428809668253116e+00  7.9999999999999991e+00  8.0256255075741567e+00  8.0706042057024145e+00  8.0241958461028879e+00  8.0539359604556644e+00  8.1002458496766305e+00  8.0554678242148494e+00  8.0000000000000000e+00  8.0430147647478165e+00  8.0440279539325914e+00  8.1268245977635676e+00  8.0901006237720043e+00  8.1322596883346954e+00  8.0887811855818441e+00  8.0733847266223346e+00  8.0738729457221066e+00  8.0528277039664999e+00  8.0379062700278148e+00  8.0595668767817568e+00  8.0593691630673163e+00  8.0857295387885930e+00  8.1064544472348601e+00  8.0946563588523635e+00  8.0946883442216890e+00  8.0599854695770876e+00  8.0381776933354967e+00  8.1275419157047200e+00  8.0205783005370730e+00  8.0203275712131639e+00  8.0206670312519872e+00  8.1667192017988963e+00  8.1873270607501958e+00  8.1657518901706219e+00  8.1835159732611054e+00  8.1842362414458112e+00  8.2056598989998122e+00  8.2276175313936708e+00  8.2069404186023718e+00  8.1860765920387841e+00  8.1613347037834458e+00  8.1626106391153606e+00  8.1579393683100019e+00  8.1523973749596106e+00  8.1562939951647788e+00  8.1808222577669998e+00  8.1797881757592847e+00  8.1767624468814422e+00  8.2032667349319759e+00  8.2004803314483574e+00  8.2028087014876370e+00  8.2253284991304891e+00  8.3206292270694782e+00  8.3197867321897387e+00  8.3419259277555096e+00  8.3622077897402995e+00  8.3625237193924917e+00  8.3845219995329554e+00  8.3644756313405644e+00  8.3417650139952091e+00  8.3188235624539733e+00  8.3407280991573849e+00  8.3830950380535025e+00  8.3616055487247163e+00  8.3403203543545352e+00  8.3418451463392547e+00  8.3835299396011926e+00  8.3639161728415736e+00  8.3633842955845203e+00  8.3846962431036332e+00  8.3856633075856735e+00  8.3399231513068095e+00  8.3398394483125617e+00  8.3629160642848657e+00  8.3839702451828764e+00  8.3619862143674393e+00  8.3617402095811340e+00  8.3178465913208974e+00  8.3416576823101209e+00  8.3833081896835431e+00  8.3838975608361856e+00  8.3617025543931014e+00  8.3830726119150079e+00  8.3397859274626018e+00  8.3837299493130697e+00  8.3830241435219275e+00  8.3618897787075621e+00  8.3631733422164327e+00  8.3837349962126773e+00  8.3844519394778239e+00  8.3844639661655247e+00  8.0318457437676702e+00  8.0554971196938308e+00  8.0540340285823468e+00  8.0618418751445144e+00  8.0000000000000000e+00  8.0000000000000018e+00  8.0268199542889818e+00  8.0277993152027349e+00  8.0000000000000000e+00  8.0239271460687309e+00  8.0243654866303782e+00  8.0000000000000000e+00  7.9999999999999991e+00  8.0000000000000000e+00  8.0242555738977170e+00  8.0256387338174715e+00  8.0000000000000000e+00  8.0000000000000000e+00  8.0901527215280264e+00  8.0127710454520731e+00  7.9999999999999991e+00  8.0000000000000000e+00  8.0000000000000000e+00  8.0167709382789418e+00  8.0124869615009171e+00  8.0000000000000018e+00  8.0000000000000000e+00  8.0292018746684199e+00  8.0660548787351818e+00  8.0473138051635065e+00  8.0348593403540924e+00  8.0289947721811430e+00  8.2765775958455396e+00  8.2976817883864715e+00  8.3177114330367825e+00  8.3181717501868313e+00  8.2556362546759665e+00  8.2776588760462957e+00  8.2979378358487867e+00  8.2967673495948535e+00  8.2756885005784540e+00  8.3182300376083376e+00  8.2978673761925617e+00  8.3174562569568824e+00  8.2962952409968072e+00  8.3189279457823719e+00  8.2994768544732036e+00  8.3184160723646023e+00  8.1524679141499021e+00  8.1309308518468502e+00  8.1768304489305699e+00  8.1564347587459931e+00  8.1324391641671792e+00  8.1391991968066435e+00  8.1486676583485949e+00  8.1449072976203372e+00  8.1161540889336052e+00  8.1165728183663912e+00  8.0820845843828479e+00  8.1092131963613454e+00  8.1098267164680351e+00  8.0813737762732583e+00  8.0814593068038612e+00  8.0995180985641788e+00  8.0697483193048178e+00  8.0696692227366196e+00  8.0707364360627860e+00  8.1004010124662447e+00  8.0430994529684305e+00  8.0441385581524525e+00  8.4928008188149544e+00  8.5285327846526577e+00  8.5185121752651813e+00  8.5184273097468779e+00  8.5001091381852945e+00  8.5006973780121360e+00  8.5082106305526324e+00  8.5086216781124673e+00  8.1670498438945476e+00  8.1433588964059762e+00  8.1628851053019282e+00  8.1377425436820356e+00  8.1375173108997085e+00  8.1620885597388568e+00  8.1863885139344621e+00  8.1470226185417900e+00  8.1463465156984594e+00  8.1660931107050310e+00  8.1428725974590979e+00  8.1697048631168201e+00  8.1688020823933023e+00  8.1911737799343900e+00  8.1892236514039212e+00  8.1661433682301734e+00  8.1434810989113746e+00  8.1466711931085154e+00  8.1691915652831391e+00  8.1887922728416971e+00  8.1686263423362639e+00  8.1908307270747720e+00  8.2334633918633973e+00  8.2113005072210914e+00  8.2124137648749063e+00  8.1907480372474630e+00  8.2125958636938119e+00  8.1581261490060548e+00  8.1311304023238584e+00  8.5179916488829068e+00  8.5173526533231048e+00  8.5279673434198919e+00  8.5377382077978403e+00  8.5278901611709070e+00  8.5181637611532146e+00  8.5277765002158095e+00  8.5373117930417823e+00  8.5375081357709721e+00  8.5379272264098116e+00  8.5375153728916775e+00  8.5561807393968081e+00  8.5743229187159589e+00  8.5566941970828676e+00  8.5561280039830923e+00  8.0000000000000000e+00  8.0000000000000000e+00  8.0320365790649912e+00  8.0000000000000000e+00  8.0000000000000000e+00  8.0280434545282571e+00  7.9999999999999991e+00  7.9999999999999991e+00  8.0314547974443737e+00  8.0000000000000000e+00  8.0000000000000000e+00  8.0416003720458935e+00  8.0621357453678772e+00  8.0403420389593094e+00  8.0723125049958959e+00  7.9999999999999991e+00  8.0404009739288504e+00  8.0000000000000000e+00  8.0715879771378471e+00  8.1001768708214481e+00  8.3186274146598489e+00  8.3192234379555501e+00  8.3413186148439138e+00  8.3187490972280678e+00  8.3179087392271818e+00  8.3169657600745399e+00  8.3420733316138431e+00  8.3638180840474270e+00  8.3414486779988906e+00  8.1441743927095835e+00  8.1086462380768562e+00  8.1092462395922773e+00  8.1384243666566860e+00  8.0241217251646102e+00  8.0692631482026798e+00  8.0988852107267117e+00  8.0693405607475093e+00  8.0236939970191550e+00  8.0531482289616712e+00  8.0240308438948844e+00  8.0254348012180081e+00  8.0703268153050640e+00  8.0997798209480205e+00  8.0550590058971689e+00  8.0535608368276410e+00  8.1260665517488224e+00  8.0882132077387290e+00  8.0894917920273315e+00  8.1316186829717783e+00  8.0604850278876636e+00  8.0413457273859663e+00  8.0316039961689061e+00  8.0310357245739930e+00  8.0613766271870535e+00  8.0718257035676437e+00  8.0000000000000000e+00  8.0000000000000000e+00  8.0265733678134286e+00  8.0275868123028449e+00  8.0000000000000000e+00  8.0267711808489945e+00  8.0000000000000000e+00  8.0000000000000000e+00  8.0000000000000000e+00  8.0995088163964599e+00  8.1084934808282387e+00  8.1374687244175501e+00  8.0698175583818959e+00  8.0984900497369203e+00  8.0992513576917720e+00  8.0535628655331575e+00  8.1244657019761775e+00  8.1303577688216837e+00  8.1301908214996139e+00  8.0875513465089615e+00  8.1240705104108635e+00  8.1248893616474049e+00  8.0881924562040055e+00  8.0604677013587462e+00  8.0716485672304970e+00  8.0988417782879800e+00  8.0986176939983956e+00  8.1151088513000786e+00  8.1085425741485064e+00  8.0809915805500427e+00  8.1148210111260486e+00  8.0742513452324616e+00  8.0604211081268602e+00  8.1058679948407466e+00  8.1262774847292647e+00  8.0942770584753791e+00  8.0860562319857543e+00  8.1067845514342967e+00  8.0951878968985884e+00  8.1264522515497486e+00  8.1278406246204096e+00  8.0000000000000000e+00  8.0604252100116351e+00  8.0413119284730872e+00  8.0716227602197677e+00  8.0312369855970989e+00  8.0877085214521145e+00  8.1240284924924175e+00  8.0985975308240192e+00  8.0718299140176732e+00  8.0608809621306854e+00  8.0416020180557730e+00  8.0987960762890872e+00  8.0722586067609630e+00  8.0317723486446724e+00  8.0535175023558452e+00  8.0616556331187450e+00  8.0000000000000018e+00  8.0269346635639653e+00  8.0278116370383739e+00  8.0000000000000000e+00  8.0000000000000000e+00  8.1001105526574566e+00  8.1248221269200638e+00  8.0995103279413403e+00  8.1244506326902606e+00  8.0879373811322015e+00  8.5689873484530708e+00  8.5507134826301510e+00  8.5824013505674497e+00  8.5641033466527823e+00  8.4615504379166016e+00  8.4680108355065364e+00  8.4473367574957390e+00  7.9999999999999991e+00  8.0286569533662124e+00  8.0127301714001433e+00  8.0164785621138908e+00  8.0522245239173920e+00  8.0341420386975724e+00  8.0291086466632748e+00  8.0461539599204492e+00  8.0642020488067150e+00  8.0646054498245103e+00  8.0471710438830009e+00  8.3409859534951902e+00  8.3409436519086171e+00  8.3409345145099749e+00  8.3409418672317077e+00  8.3629772522073740e+00  8.2541182011786098e+00  8.2310735061092792e+00  8.2745734341562045e+00  8.2510083815044712e+00  8.2282035908509119e+00  8.2525754625396672e+00  8.2766207257800595e+00  8.2769804187878044e+00  8.2995736501232678e+00  8.2978452893655881e+00  8.2243116063193433e+00  8.2515675376372037e+00  8.2482369192107363e+00  8.2257277852650361e+00  8.2490805884214531e+00  8.2713537767708711e+00  8.2739590991777661e+00  8.2960455457631905e+00  8.2941072362353356e+00  8.2720547291006579e+00  8.3174362346939983e+00  8.3394313814479091e+00  8.3162024610626482e+00  8.3150394113863157e+00  8.3388052852519472e+00  8.3382386451270882e+00  8.3141695738618751e+00  8.3155347697924551e+00  8.3611226281806275e+00  8.3608935821345671e+00  8.3624638511247777e+00  8.3638065425215657e+00  8.3627236285175144e+00  8.3838986979550096e+00  8.3845338575665576e+00  8.2968785241185667e+00  8.2478336912665426e+00  8.2732421716045597e+00  8.2706711830964021e+00  8.2925156168779885e+00  8.2705765698018663e+00  8.2948509093415321e+00  8.2928889162786632e+00  8.2544190265121102e+00  8.2748106722301209e+00  8.2315725005533835e+00  8.2291677516536712e+00  8.2530267763643188e+00  8.2740388181822553e+00  8.2553132552238573e+00  8.2774600130259621e+00  8.2771147876333657e+00  8.2968326584206071e+00  8.2994007595204753e+00  8.2491805811182850e+00  8.2265744742969513e+00  8.0000000000000000e+00  8.0318507773601180e+00  8.0314368099749771e+00  8.0618180810232740e+00  8.0403669815585914e+00  8.0000000000000000e+00  8.0000000000000000e+00  8.0278047438658806e+00  8.0000000000000000e+00  7.9999999999999991e+00  8.0715379505354505e+00  8.5922753477370790e+00  8.1436915672495775e+00  8.1377122858595765e+00  8.1606291709703758e+00  8.1374672124092360e+00  8.1306532909533651e+00  8.1508901896192008e+00  8.1552948369419553e+00  8.1301392764792269e+00  8.1307325462177591e+00  8.1518746672630549e+00  8.1764146532675888e+00  8.1507222953469132e+00  8.1553446925930206e+00  8.1758471532914445e+00  8.1793383893893346e+00  8.2002947505953703e+00  8.0809191041914783e+00  8.1148619864994611e+00  8.1056108343385471e+00  8.1262193747967526e+00  8.1461990842578658e+00  8.0941118169323296e+00  8.1261087501615474e+00  8.1148512834906672e+00  8.1465918022949815e+00  8.1468097235178814e+00  8.1429377019560523e+00  8.1083039874375551e+00  8.1085987872498855e+00  8.1373281343141404e+00  8.1427671367385859e+00  8.0697912584463829e+00  8.0990409352208061e+00  8.0000000000000000e+00  7.9999999999999991e+00  8.0000000000000018e+00  8.0312033848121054e+00  8.0000000000000000e+00  7.9999999999999991e+00  8.0400560897844233e+00  8.0000000000000000e+00  8.0401156035793289e+00  8.0710992631180698e+00  8.0000000000000018e+00  8.0168756900090266e+00  7.9999999999999991e+00  8.0193012660329028e+00  8.0194599268012254e+00  8.0000000000000000e+00  8.0127238119614983e+00  8.0165156494791852e+00  8.0347963911841909e+00  8.0291318577865258e+00  8.0000000000000018e+00  8.0124451704959778e+00  8.0000000000000000e+00  7.9999999999999991e+00  8.0000000000000000e+00  7.9999999999999991e+00  8.0124444475609184e+00  8.0167396921059542e+00  8.0347765070940653e+00  8.0471485378352590e+00  8.0289026212385224e+00  8.0000000000000000e+00  8.0000000000000000e+00  8.0000000000000018e+00  8.0187930371365113e+00  8.0186785494823418e+00  8.0000000000000000e+00  8.0000000000000000e+00  7.9999999999999991e+00  8.0000000000000000e+00  8.2709060782682773e+00  8.3159698482296012e+00  8.2931654547463918e+00  8.3148257126701441e+00  8.2480307658673002e+00  8.2948664825693790e+00  8.2711764705510387e+00  8.2931385646690554e+00  8.2735362707252680e+00  8.3168533593263483e+00  8.3153062893778298e+00  8.2939560333427522e+00  8.3162267918680328e+00  8.2956420642694049e+00  8.3153686166373824e+00  8.1763686025638211e+00  8.1995472427701035e+00  8.2218798919748508e+00  8.2030330760006702e+00  8.2224195135334330e+00  8.2245869753948213e+00  8.2487022220351740e+00  8.2467673466656422e+00  8.2704247836953435e+00  8.2716959825622212e+00  8.2114976301661713e+00  8.2282589784810298e+00  8.2079162029891197e+00  8.1863119194316880e+00  8.2073540785241565e+00  8.1519235360812825e+00  8.1760883410681249e+00  8.1577154308262667e+00  8.1808176125369414e+00  8.2032109524012284e+00  8.2220070685361684e+00  8.1995033963638324e+00  8.1765427310563616e+00  8.1811077074547836e+00  8.1994325394847465e+00  8.2224789341143740e+00  8.2040150015514257e+00  8.2252248158784216e+00  8.2249616441149342e+00  8.2004931545022153e+00  8.2226000766565761e+00  8.2034687869556837e+00  8.0597500045609465e+00  8.0736001516111706e+00  8.0948862530628265e+00  8.0948550914663642e+00  8.1066972563547672e+00  8.1278076698700819e+00  8.0207808393406186e+00  8.0204263364040624e+00  8.0380876786455833e+00  8.0530288459828263e+00  8.0647782710162890e+00  8.0734590762845215e+00  8.0643524299784826e+00  8.0523829692792752e+00  8.0852654541757687e+00  8.0527234844497784e+00  8.0381949207150942e+00  8.0648521619831381e+00  8.0853090519752975e+00  8.1064554895210019e+00  8.0165583494602508e+00  8