<?xml version="1.0"?>
<VTKFile type="UnstructuredGrid"  version="0.1"  >
<UnstructuredGrid>
<Piece  NumberOfPoints="5394" NumberOfCells="20941">
<Points>
<DataArray  type="Float64"  NumberOfComponents="3"  format="ascii">-6.143375 -49.007597 -26.391558  -3.5086365 -48.897009 -27.0099495  -4.2813135 -46.175375 -25.6006  -4.633871 -49.387593 -25.9376925  -5.018140499999999 -48.517013 -27.463815  -3.892906 -48.026429 -28.536072  -2.7718095 -46.555371 -25.1467345  -3.156079 -45.684791 -26.672857  -3.124367 -49.767589 -25.483827  -2.419252 -43.343153 -24.809642  -1.245354 -46.075323 -26.1327445  -1.982181 -48.416961 -27.9959595  -1.5979115 -49.287541 -26.469837  -0.07145600000000001 -48.807493 -27.455847  -4.853642 -45.541784 -26.64014  -5.9788765 -46.032368 -25.567883  -5.814378 -43.057139 -24.744208  -4.116815 -43.200146 -24.776925  -7.680115 -47.250312 -29.058971  -6.747246499999999 -45.1537255 -26.9015895  -6.911745 -48.1289545 -27.7252645  -5.7865105 -47.6383705 -28.7975215  11.009033 -21.151806 -50.66954  9.149477000000001 -19.838838 -48.267548  10.719521 -19.475406 -48.1076175  10.102328 -21.0749345 -47.552566  9.195622999999999 -20.998063 -44.435592  8.242771999999999 -19.7619665 -45.150574  9.812816 -19.3985345 -44.9906435  10.430009 -17.799006 -45.545695  8.859964999999999 -18.162438 -45.7056255  7.289921 -18.52587 -45.865556  -4.231346 -38.567777 -40.380965  -2.315475 -35.799481 -39.004932  -3.4965215 -35.430009 -39.249171  -3.535308 -36.3330035 -38.419918  -3.011513 -38.0342545 -40.965979  -4.1925595 -37.6647825 -41.210218  -4.153773 -36.761788 -42.039471  -2.9727265 -37.13126 -41.795232  -1.79168 -37.500732 -41.550993  -2.83927 -34.09823 -36.458871  -2.85751 -34.517234 -40.077251  -4.0385565 -34.147762 -40.32149  -3.92334 -31.533736 -38.603509  -3.381305 -32.815983 -37.53119  5.800392 -25.898824 -49.311321  3.7977055 -25.705091 -46.16136849999999  4.897603 -26.4288005 -45.6677895  5.548043 -25.087272 -46.3503895  4.448145500000001 -24.3635625 -46.8439685  5.149952000000001 -27.2403525 -48.628721  4.499512 -28.581881 -47.946121  5.295694 -24.27572 -43.389458  4.1957965 -23.5520105 -43.883037  3.095899 -22.828301 -44.376616  3.23766 -35.030118 -43.570728  1.4761635 -33.699359 -40.86396449999999  2.0849655 -32.427831 -41.844729  2.8796185 -33.3329455 -41.1038755  1.834205 -35.3965315 -43.330817  1.039552 -34.491417 -44.0716705  2.443007 -34.12500350000001 -44.3115815  1.648354 -33.219889 -45.052435  0.43075 -35.762945 -43.090906  2.521577 -31.635773 -38.637023  16.834654 -46.558103 -26.171309  15.3545755 -44.500367 -24.3342255  15.9548725 -43.385535 -25.8885735  17.007726 -43.738298 -24.601916  17.180798 -40.918493 -23.032523  14.474794 -41.327799 -24.05149  15.5276475 -41.68056199999999 -22.7648325  16.1279445 -40.56573 -24.3191805  15.075091 -40.212967 -25.605838  13.874497 -42.442631 -22.497142  7.567823 -33.001434 -44.605307  5.973642 -30.9737885 -42.5692585  6.8339745 -32.1347125 -41.571159  7.6193925 -30.94548 -42.3435595  7.670962 -28.889526 -40.081812  5.2397935 -30.107067 -39.5351105  6.0252115 -28.9178345 -40.307511  6.885544 -30.0787585 -39.3094115  6.100126 -31.267991 -38.537011  4.379461 -28.946143 -40.53321  8.008528999999999 -14.229503 -53.566638  6.6556455 -14.715179 -50.447231  6.416881 -14.532682 -53.674834  7.331917499999999 -15.739409 -53.213264  6.655306 -17.249315 -52.85989  5.7402695 -16.042588 -53.32146  4.825233 -14.835861 -53.78303  7.964353 -45.212958 -32.068014  5.468836 -43.2424795 -30.116516  6.294857 -44.00092050000001 -28.847151  7.248619 -43.09027500000001 -29.989094  7.010591 -46.1236035 -30.926071  6.18457 -45.3651625 -32.195436  6.056829 -47.034249 -29.784128  5.230808 -46.275808 -31.053493  4.404787 -45.517367 -32.322858  6.532885 -40.967592 -27.910174  0.103369 -30.950747 -46.669482  0.0105845 -27.840972 -45.06237950000001  0.950316 -29.9932705 -47.260107  -0.3776655 -29.625679 -47.492235  -0.8587 -28.300611 -48.314988  0.8575315 -26.8834955 -45.6530045  -0.47045 -26.515904 -45.8851325  0.4692815 -28.6682025 -48.08286  1.797263 -29.035794 -47.850732  -0.0822 -24.731197 -43.455277  17.782391 -13.046718 -51.473971  15.360209 -12.127132 -49.226336  16.1514935 -13.2269695 -51.9352615  16.8854045 -11.7397845 -52.0596285  -0.8336129999999999 -35.723151 -39.1308965  -1.3527025 -34.465665 -40.2131055  -1.357408 -34.0219 -36.5848355  -1.8764975 -32.764414 -37.6670445  -0.913725 -31.430598 -38.875218  -0.3946355 -32.688084 -37.793009  0.124454 -33.94557 -36.7108  -2.430433 -41.989926 -36.972139  -0.320653 -40.0732465 -34.6527085  -1.55275 -39.4244705 -35.375099  -2.385334 -40.66944599999999 -33.866107  -1.198336 -42.63870199999999 -36.2497485  0.033761 -43.287478 -35.527358  -1.153237 -41.318222 -33.1437165  -2.340235 -39.348966 -30.760075  -1.507651 -38.10399049999999 -32.269067  -0.675067 -36.859015 -33.778059  11.311237 -44.397121 -32.201733  8.720955500000001 -44.1479555 -33.282449  9.741709499999999 -41.4940485 -31.462768  9.637795000000001 -44.8050395 -32.1348735  10.3943975 -43.740037 -33.3493085  9.477558 -43.082953 -34.496884  8.068267499999999 -41.901967 -31.3959085  8.824870000000001 -40.8369645 -32.6103435  8.172181999999999 -38.590976 -30.723803  8.983081500000001 -42.6626105 -30.0961025  10.6565235 -42.254692 -30.162962  10.00181 -40.112263 -28.124191  9.086995999999999 -39.3516195 -29.423997  12.495649 -42.218129 -34.604745  9.503070000000001 -39.6708765 -33.787424  10.155758 -41.916865 -35.6739645  10.9866035 -42.650541 -34.5508145  10.3339155 -40.40455249999999 -32.664274  11.6648035 -41.484453 -35.727895  10.833958 -40.750777 -36.851045  11.190295 -39.1709215 -33.865625  12.0211405 -39.90459749999999 -32.742475  11.546632 -37.591066 -30.880205  9.859407000000001 -38.091021 -30.802004  6.110854 -30.841576 -46.340637  5.404761000000001 -27.561 -44.924229  4.624612 -28.4742385 -44.434022  6.210432 -28.6908475 -44.121487  5.305183 -29.7117285 -47.143379  3.818941 -27.344391 -45.23676399999999  6.31001 -26.540119 -41.902337  4.72419 -26.32351 -42.214872  3.13837 -26.106901 -42.527407  -2.994825 -44.38259 -34.017889  -2.66753 -41.865778 -32.388982  -1.480532 -43.835034 -34.77262349999999  -2.712629 -43.186258 -35.495014  0.627854 -40.898491 -38.248128  1.220135 -38.290164 -36.613501  1.8018755 -39.181037 -35.6136365  -0.02360649999999997 -38.878753 -36.0130935  0.5686745 -36.270426 -34.3784665  1.150415 -37.161299 -33.378602  2.975897 -37.463583 -32.979145  2.3941565 -36.57271 -33.9790095  1.812416 -35.681837 -34.978874  18.149713 -29.706552 -43.864663  16.65336 -30.1366045 -40.2724345  15.966428 -28.989879 -41.365877  17.463562 -28.738413 -40.9542295  17.339511 -31.1047435 -43.182868  16.529309 -32.502935 -42.501073  15.156226 -30.3880705 -40.684082  16.777411 -27.770274 -38.043796  15.280277 -28.02174 -38.4554435  13.783143 -28.273206 -38.867091  19.658172 -26.794241 -45.07355  16.7965935 -24.7043495 -43.746426  17.5356085 -26.0271415 -42.6885015  18.271031 -24.4114895 -43.3314195  18.1837345 -27.087101 -45.4885565  16.709297 -27.379961 -45.903563  16.061171 -26.3200015 -43.103508  16.88389 -22.028738 -41.589289  16.1484675 -23.64439 -40.946371  15.413045 -25.260042 -40.303453  0.3673145 -32.3252435 -41.9638265  -0.2414875 -33.5967715 -40.983062  0.8039260000000001 -31.5331855 -38.75612049999999  17.364117 -41.900674 -32.84541  16.5099065 -40.860625 -29.4142745  15.3408485 -40.4675695 -30.55558  16.9175375 -39.8533265 -30.5596735  16.956486 -42.9079725 -31.700011  16.548855 -43.915271 -30.554612  14.9332175 -41.474868 -29.410181  16.470958 -37.805979 -28.273937  14.894269 -38.420222 -28.2698435  13.31758 -39.034465 -28.26575  6.124515499999999 -33.072712 -44.75016  6.8393385 -31.921505 -45.472972  5.245157499999999 -29.8938595 -43.4369235  5.396031 -31.992783 -45.617825  4.681208 -33.14399 -44.895013  4.5303345 -31.0450665 -42.7141115  6.333607000000001 -42.2392175 -31.3319265  4.553824000000001 -42.391422 -31.4593485  5.617873 -40.1165345 -29.2530065  4.702861 -39.265477 -30.595839  15.772428 -45.562065 -28.483832  13.53358 -46.1000455 -28.721179  13.8315295 -43.4906045 -26.921303  14.6494305 -45.395613 -29.303113  14.6565775 -46.2664975 -27.901898  13.540727 -46.97093 -27.319964  12.708532 -43.3241525 -27.740584  12.715679 -44.195037 -26.339369  13.526433 -45.229161 -30.122394  11.890631 -41.419144 -25.358774  14.300762 -42.721064 -27.864116  15.4237595 -42.887516 -27.044835  13.482861 -40.8160555 -25.482306  8.588379 -19.526564 -51.777921  6.035418 -18.790485 -52.3784315  6.9200745 -17.6856845 -49.454619  7.0019545 -19.9291095 -51.837447  7.6218425 -18.3879395 -52.3189055  5.33365 -18.08823 -49.514145  5.953538 -16.54706 -49.9956035  5.41553 -20.331655 -51.896973  5.25177 -15.844805 -47.131317  0.8140230000000001 -45.297309 -32.916427  0.5857644999999999 -41.3814695 -33.096597  0.9758955 -42.386385 -31.7911315  -0.7631059999999998 -42.3231375 -31.838251  0.423892 -44.2923935 -34.2218925  -0.6012335 -39.4122135 -30.7129555  1.137768 -39.475461 -30.665836  3.0139075 -31.083016 -42.7928225  3.6013925 -32.3898815 -41.766018  3.164781 -33.1819395 -44.973724  3.450519 -30.290958 -39.5851165  6.336097 -43.727163 -34.406236  3.912297 -41.5918645 -32.599956  4.820927 -40.76508699999999 -33.5002665  5.519479 -41.49632 -32.5010375  4.728915 -43.8227075 -34.5051545  5.637544999999999 -42.99593 -35.405465  4.938993 -42.264697 -36.404694  4.030362999999999 -43.0914745 -35.5043835  3.121733 -43.918252 -34.604073  3.417927 -41.00561 -37.984968  1.971428 -40.084976 -39.0160415  2.6151715 -38.3437235 -36.481921  2.0228905 -40.9520505 -38.116548  3.3664645 -40.1385355 -38.8844615  3.315002 -39.271461 -39.783955  2.563709 -37.476649 -37.3814145  2.171866 -47.108214 -30.20098  -0.3320205 -45.179518 -27.6304245  1.63339 -45.308852 -27.406235  0.7896405 -44.3298785 -29.002991  1.050205 -47.9578535 -28.8284135  0.511729 -46.1584915 -26.0336685  -0.592585 -41.551543 -27.805002  0.2511645 -42.5305165 -26.208246  1.094914 -43.50949 -24.61149  14.406344 -43.298417 -32.460812  12.976488 -
[...]
<PointData  Scalars="p"> 
<DataArray  type="Float64"  Name="p"  format="ascii">9.4434481148147480e+00  9.4041544464177012e+00  9.4192002974529281e+00  9.4208812145317253e+00  9.4265987079021869e+00  9.4098356467822484e+00  9.3954252220010019e+00  9.4014618248023947e+00  9.3984112106978799e+00  9.3920513896816420e+00  9.3714799515007954e+00  9.3814206333690606e+00  9.3756970370230039e+00  9.3530328540833558e+00  9.4282136997111579e+00  9.4460126082089797e+00  9.4489098466624650e+00  9.4204641124149795e+00  9.4665749028227548e+00  9.4582305573104648e+00  9.4550350547157525e+00  9.4381332830313358e+00  9.1867725648250484e+00  9.2073054615328793e+00  9.1818594889392866e+00  9.1918687977922122e+00  9.1976605533159930e+00  9.2139154573544690e+00  9.1869416584603734e+00  9.1763778058219270e+00  9.2033824964991702e+00  9.2302411105925763e+00  9.4148814815567547e+00  9.3883608239110377e+00  9.4069000711552224e+00  9.4074956205508009e+00  9.3967775130408580e+00  9.4143050170444074e+00  9.4137186857593811e+00  9.3961980436885746e+00  9.3786929641724583e+00  9.3992917350031728e+00  9.3968854763848828e+00  9.4154250929622627e+00  9.4173639089208692e+00  9.4083436746683091e+00  9.2658002048641475e+00  9.2925357969806601e+00  9.2752027359520941e+00  9.2649098339852785e+00  9.2822902137248544e+00  9.2755087256713828e+00  9.2853010964623817e+00  9.2639231525133656e+00  9.2823685591720135e+00  9.3008086237289493e+00  9.3040493179862249e+00  9.3289718988756878e+00  9.3194270686966210e+00  9.3069577695741685e+00  9.3248661166081988e+00  9.3366230168047455e+00  9.3158199445043337e+00  9.3276217303743145e+00  9.3456931421363585e+00  9.3102621538506387e+00  9.0945374700531723e+00  9.1044027512489833e+00  9.0940501632298023e+00  9.0758199655274261e+00  9.0546686760668944e+00  9.1044246981739807e+00  9.0852137359304397e+00  9.0742153336020657e+00  9.0937629055816860e+00  9.1154438084036382e+00  9.2392159648255703e+00  9.2581250147412941e+00  9.2444355435205932e+00  9.2319267134560512e+00  9.2237452651005469e+00  9.2647949636504165e+00  9.2515613798779928e+00  9.2370143341117465e+00  9.2503220466503429e+00  9.2793165177384100e+00  9.2325786109419425e+00  9.2472701028801332e+00  9.2565357504924961e+00  9.2427480446010524e+00  9.2529890046248777e+00  9.2666930798598450e+00  9.2804173015045794e+00  9.2332047453623645e+00  9.2660439435224760e+00  9.2529624746709978e+00  9.2377836974881085e+00  9.2475649727811184e+00  9.2599443664175070e+00  9.2619307577075691e+00  9.2742213835091540e+00  9.2865920352284714e+00  9.2429662450927808e+00  9.3504838323406911e+00  9.3519392259602547e+00  9.3379750756436373e+00  9.3576051249827721e+00  9.3647270907905114e+00  9.3386840806229756e+00  9.3594640982542163e+00  9.3451201880401698e+00  9.3254490444850742e+00  9.3535223520189614e+00  9.0790513980932985e+00  9.1042860108489094e+00  9.1055692775151407e+00  9.0936368773855172e+00  9.3651485482684151e+00  9.3732843312137799e+00  9.3746658703204062e+00  9.3832886077331512e+00  9.3672429407591444e+00  9.3586728943979764e+00  9.3501355036835072e+00  9.3880615864589352e+00  9.3570525891202898e+00  9.3763580991051843e+00  9.3893987853087637e+00  9.3697497522410860e+00  9.3514242095615465e+00  9.3700683049335307e+00  9.3908546791080241e+00  9.3770944283316204e+00  9.3633460178838472e+00  9.1819701883196636e+00  9.2216527699960817e+00  9.1976356055098414e+00  9.2076574335537984e+00  9.1960598202156376e+00  9.2101906002055838e+00  9.2246267762429035e+00  9.2125209139756397e+00  9.2151352788675922e+00  9.2099023141236387e+00  9.1828072033177239e+00  9.1837238787270863e+00  9.1993914463532160e+00  9.1636030691926447e+00  9.2014812554709362e+00  9.1997496662374960e+00  9.1869665332191364e+00  9.1880022578834506e+00  9.1764914932766022e+00  9.1894366275193313e+00  9.1740164366134564e+00  9.1604226866981460e+00  9.1568165012440286e+00  9.1860720992213718e+00  9.2611850237923274e+00  9.2671605775203840e+00  9.2794932014959706e+00  9.2543988627504330e+00  9.2732217585605543e+00  9.2922275081303738e+00  9.2468242035419781e+00  9.2734847558108804e+00  9.3001308680023822e+00  9.3964299210795481e+00  9.3938006862249299e+00  9.3739442762461298e+00  9.3922357280296964e+00  9.3426864825327183e+00  9.3329541022577853e+00  9.3238130691293328e+00  9.3524234174299767e+00  9.3427190723273341e+00  9.3330225067414414e+00  9.3026290081604674e+00  9.3123238629372960e+00  9.3220642786051098e+00  9.0729338821182690e+00  9.0819831193586413e+00  9.0938264640663675e+00  9.0678571802390007e+00  9.0861490405823595e+00  9.0995144295465415e+00  9.1078047540062830e+00  9.0622675665971126e+00  9.0898005528472048e+00  9.1170359787920567e+00  9.0476855401377598e+00  9.0794407072304875e+00  9.0665444415323257e+00  9.0535456831162993e+00  9.0722588766240868e+00  9.0965997956198859e+00  9.0923088796870299e+00  9.0602579929494116e+00  9.0737547882417378e+00  9.0875169998557421e+00  9.3463365467537738e+00  9.3558735380950058e+00  9.3387695155263213e+00  9.0859419999696076e+00  9.0844906127405647e+00  9.1045838938839481e+00  9.0774503220465519e+00  9.0924592803353885e+00  9.0991985204023731e+00  9.1116018531547738e+00  9.0680117415237902e+00  9.0968938821187280e+00  9.1254903072351166e+00  9.2609297715140517e+00  9.2501863242513611e+00  9.2696922569129772e+00  9.2718466812544396e+00  9.2825811318780289e+00  9.2809948742578090e+00  9.2523062250694696e+00  9.2805167263239259e+00  9.2583096647316658e+00  9.2737289319953504e+00  9.1117058040960117e+00  9.1471341089922191e+00  9.1301830389034979e+00  9.1295801230475409e+00  9.1294627180159047e+00  9.1471366628852824e+00  9.1489762767384697e+00  9.1488780132136380e+00  9.1473589905664383e+00  9.1507659171164413e+00  9.1222226987604973e+00  9.1032489578092193e+00  9.1223770940208375e+00  9.2237462126269669e+00  9.2622548328698588e+00  9.2430655274689535e+00  9.2477348102383221e+00  9.2383654433317997e+00  9.2682790884586126e+00  9.2584795302332097e+00  9.2715944722168420e+00  9.2646650400247843e+00  9.3398550130039286e+00  9.3428382761571083e+00  9.3367156804980791e+00  9.3639510510804218e+00  9.3456421227439446e+00  9.3620049635404143e+00  9.3331719785367753e+00  9.3048471195262348e+00  9.2955921395112053e+00  9.3051182136642474e+00  9.2947406886789299e+00  9.2577437599973926e+00  9.2906408027193184e+00  9.2763027441279569e+00  9.2652731597663376e+00  9.2817445679621056e+00  9.2681871945879948e+00  9.2786943559828448e+00  9.2921942103003037e+00  9.3056870868329291e+00  9.3013076257942409e+00  9.3227495159899494e+00  9.3110627852970236e+00  9.3220013759222411e+00  9.3020509949803749e+00  9.3028537129453213e+00  9.3118828423685045e+00  9.3197490601925601e+00  9.3571812408975745e+00  9.3263923369844228e+00  9.3396104008205416e+00  9.3363766395604202e+00  9.3439673328087594e+00  9.3617954837800639e+00  9.3477975974170739e+00  9.3337905541717845e+00  9.1335466276465489e+00  9.1445031988401198e+00  9.1297456058398900e+00  9.1167673086796643e+00  9.0980460696251786e+00  9.1275654147681582e+00  9.1116316287131607e+00  9.1410819415619535e+00  9.1205710393577775e+00  9.1376996163112025e+00  9.1270033964302080e+00  9.1099575882318629e+00  9.0915795021759607e+00  9.1032802347135764e+00  9.1098306859902447e+00  9.2895335995940336e+00  9.2903587736941891e+00  9.2762030307044991e+00  9.2991558064784492e+00  9.2454261889027904e+00  9.2721593284190345e+00  9.1393459930680354e+00  9.1631120964925721e+00  9.1475127200821245e+00  9.1348926344123882e+00  9.1298981370019892e+00  9.1598400167943144e+00  9.1432469808690051e+00  9.1731261036210068e+00  9.1895537172488471e+00  9.1689510370876981e+00  9.1811071476627575e+00  9.1699603662059861e+00  9.1561709202261685e+00  9.1418229797184996e+00  9.1683722707472501e+00  9.1564327998269288e+00  9.1711527588829664e+00  9.1828806866924122e+00  9.1947251896093931e+00  9.1686489216837845e+00  9.1784400411850218e+00  9.1671184261721450e+00  9.1503835273811429e+00  9.1774144241463453e+00  9.1475778217607022e+00  9.1654039256789179e+00  9.1478134494497159e+00  9.1643563564587680e+00  9.1728656287911772e+00  9.1486045649608183e+00  9.1626239260815794e+00  9.1707600382128209e+00  9.1936204567682758e+00  9.1855231307763177e+00  9.1775537682895596e+00  9.1495456493345522e+00  9.2614156272935357e+00  9.2879475517156926e+00  9.2879575812048660e+00  9.2660258695797175e+00  9.2821451711957774e+00  9.2821623239586479e+00  9.3028435756726555e+00  9.3028466986112281e+00  9.2711762667576121e+00  9.2684135015418558e+00  9.2736457160547996e+00  9.3049051944616910e+00  9.2892293871715470e+00  9.2917252828869135e+00  9.3072265869983237e+00  9.3048931123660381e+00  9.0235706059799572e+00  9.0278690516420834e+00  9.0418558100270623e+00  9.0141074659181317e+00  9.0364139664460463e+00  9.0494463139614201e+00  9.0554811115091525e+00  9.0035202772636556e+00  9.0330826735961853e+00  9.1041585875951707e+00  9.1278295954950153e+00  9.1300165841746637e+00  9.1179576363613783e+00  9.1318461814330583e+00  9.1423073980386604e+00  9.1437101335336788e+00  9.1557148474612724e+00  9.1549434668825533e+00  9.1541588340691789e+00  9.1448255395763969e+00  9.1691075725186852e+00  9.1807602273110920e+00  9.1688026170004271e+00  9.1568051065483953e+00  9.1568351063244968e+00  9.1926366421760726e+00  9.1813830852911131e+00  9.1694471623254010e+00  9.1695071829538950e+00  9.1573672398085844e+00  9.1576450589256879e+00  9.1832645710113923e+00  9.1699222631675052e+00  9.1857852462534204e+00  9.1936096563357470e+00  9.1817077336537931e+00  9.1434012309150461e+00  9.1560536209638830e+00  9.1813495977787838e+00  9.1549122473765046e+00  9.1681115892239671e+00  9.1687868826248771e+00  9.1894729137957611e+00  9.2022276536845649e+00  9.1232025539421109e+00  9.1005069705672046e+00  9.1018272040511921e+00  9.1257434277605913e+00  9.1091519860955206e+00  9.1332418766520718e+00  9.1727523628204004e+00  9.2396768147443087e+00  9.2625187515145626e+00  9.2504096674905050e+00  9.2430320451997439e+00  9.2158372637876003e+00  9.2304499466720991e+00  9.2385496997810073e+00  9.2277330894760272e+00  9.0704425965326667e+00  9.0745969291714328e+00  9.0637298631476622e+00  9.0781429815314301e+00  9.0887270475690265e+00  9.1925681611232299e+00  9.2170313242568991e+00  9.2272653110146905e+00  9.2149005556895460e+00  9.2050139568909852e+00  9.1940839503961165e+00  9.2175125221862224e+00  9.2069625688059649e+00  9.2371566440614945e+00  9.1957209927147154e+00  9.2185900542424761e+00  9.1949871023687315e+00  9.1966378102942965e+00  9.2324860878293471e+00  9.2428526583968420e+00  9.2492198947139848e+00  9.2217620551359385e+00  9.2234971209477692e+00  9.3528111063694457e+00  9.3722781601073830e+00  9.3615147466280551e+00  9.3803447763164751e+00  9.4355924783479370e+00  9.4144812100819664e+00  9.4291680584257147e+00  9.4412943135438550e+00  9.4476400873086099e+00  9.4192160619192098e+00  9.4348305633438319e+00  9.4219907260326767e+00  9.4064487107650052e+00  9.0461378004085002e+00  9.0671339362032857e+00  9.0526478031883197e+00  9.0407876242920597e+00  9.0347744430403267e+00  9.0627646495547012e+00  9.0473515683317167e+00  9.0752604934232597e+00  9.0904452657902528e+00  9.2179943070564914e+00  9.2184517735092140e+00  9.2067799035376954e+00  9.2338055447695488e+00  9.2080204975266096e+00  9.1924531966892555e+00  9.2058798549654828e+00  9.2042030710799967e+00  9.1953191590645886e+00  9.1953569365642878e+00  9.2219609529210391e+00  9.2066425137299674e+00  9.1931325549049632e+00  9.1932363604614658e+00  9.2198017927506353e+00  9.2177440054220554e+00  9.2233639404704970e+00  9.2211630714365906e+00  9.1953511806383990e+00  9.2249891567479949e+00  9.2072680946806589e+00  9.2048268591136555e+00  9.2162087904709331e+00  9.2050704383143813e+00  9.2296825791618673e+00  9.2285755631074959e+00  8.9643830888744436e+00  8.9755786847190695e+00  8.9562893470628531e+00  8.9425724754483991e+00  8.9179139076679981e+00  8.9675723966082064e+00  8.9533473017731993e+00  8.9325736286139197e+00  8.9475842754282517e+00  8.9880810738530190e+00  9.2652004713190959e+00  9.2751735751771029e+00  9.2631715964370969e+00  9.2560107749649685e+00  9.2719216249356151e+00  9.2832692014597544e+00  9.2900067682871406e+00  9.2457395189345490e+00  9.2704086269843877e+00  9.2609511860168450e+00  9.3019165563299886e+00  9.2742199617154384e+00  9.2893908534832512e+00  9.2899408478546839e+00  9.0973018595196571e+00  9.1214681322830113e+00  9.1193752229317351e+00  9.1103983693892694e+00  9.1333407532418533e+00  9.1237289116669658e+00  9.1345779403363405e+00  8.9846005047274584e+00  9.0098838338337472e+00  9.0086844724234520e+00  9.0117267758762125e+00  9.0385718058417215e+00  9.0349976303017776e+00  9.0381818880066707e+00  9.0353930086023659e+00  9.0325080499210380e+00  9.0378581565442335e+00  9.3004551328654514e+00  9.2820204037196934e+00  9.3224811460996495e+00  9.3118383433967029e+00  9.3298265530738504e+00  9.3502542938509876e+00  9.3029469686701365e+00  9.3323886933443418e+00  9.1811103630826612e+00  9.2167762505888930e+00  9.2149215057551555e+00  9.2024648180926576e+00  9.1936354591256322e+00  9.1942327997675637e+00  9.2062023034347487e+00  9.2075213236710685e+00  9.2090063763731838e+00  9.3285598488324339e+00  9.3227926906294325e+00  9.3186398892415774e+00  9.2268198815684119e+00  9.2014910951565856e+00  9.2195516233255237e+00  9.1926515475239796e+00  9.2322804876413720e+00  9.2296422549550332e+00  9.2214266657620509e+00  9.2193851614655991e+00  9.2527918438204448e+00  9.2368882885131089e+00  9.2249760117186934e+00  9.2410178252010891e+00  9.2052443697211128e+00  9.3063082849582113e+00  9.3034295250001851e+00  9.3242479438383921e+00  9.3050926655278463e+00  9.3200830704156559e+00  9.2929082830287442e+00  9.3163478894317269e+00  9.3319972076114190e+00  9.3081211606003933e+00  9.3369615736711573e+00  9.2673519843792533e+00  9.2803271836674863e+00  9.2185161469448289e+00  9.2325725489492871e+00  9.2208285143182760e+00  9.2065541960356327e+00  9.4072652539356660e+00  9.4205627639323470e+00  9.4051284863213720e+00  9.4335392621764722e+00  9.4193122932082058e+00  9.4343315712234119e+00  9.4349262827022038e+00  9.4574935605384063e+00  9.4283453461792757e+00  9.0667670753114180e+00  9.0523953529355374e+00  9.0623052801612687e+00  9.0829487474236696e+00  9.1965015379675030e+00  9.1817458751781054e+00  9.1947199222288845e+00  9.3716200054029031e+00  9.3729286156602516e+00  9.3552211548139788e+00  9.3840702533935474e+00  9.3610331025032067e+00  9.3440975916786329e+00  9.3979401970955401e+00  9.3674211806313323e+00  9.2079967350272689e+00  9.1973162910966479e+00  9.3922861563630970e+00  9.1816666379870213e+00  9.2591859960671279e+00  9.2338864520746711e+00  9.2664973235176760e+00  9.2396629848351743e+00  9.2570510630725860e+00  9.2837671216261448e+00  9.2521123651693564e+00  9.2543829155255182e+00  9.2773182716556253e+00  9.2474259025913828e+00  9.2741381064652835e+00  9.2972593013902074e+00  9.2812684200584368e+00  9.2666487112159803e+00  9.2908777375690139e+00  9.2720453591362713e+00  9.2874656032453942e+00  9.3146211878997267e+00  9.0020861084321186e+00  9.0328251325576705e+00  9.0168222601021100e+00  9.0044206544795475e+00  9.0289727988204440e+00  9.0405792573717569e+00  9.0137913056840837e+00  9.0257508725492350e+00  9.0555040434905756e+00  9.0070869861876428e+00  9.4155954769650716e+00  9.3927690934893739e+00  9.4036773902276831e+00  9.3935875711801007e+00  9.3695710360031139e+00  9.3817419409217990e+00  9.3918101130469953e+00  9.3801987039566921e+00  9.1588064274346142e+00  9.1442217590379489e+00  9.1603086694759615e+00  9.0445014697306831e+00  9.0507317767390667e+00  9.0588551829069228e+00  9.0683159163593654e+00  9.4690028475402741e+00  9.4468183611477148e+00  9.4456152988799520e+00  9.4523148206443750e+00  9.4289430098800331e+00  9.4222781804036426e+00  9.4221398254229314e+00  9.3660419251821452e+00  9.3892509504083925e+00  9.3813372152114223e+00  9.3568406873095586e+00  9.4040562077704148e+00  9.3926320906188732e+00  9.3300338863413881e+00  9.3093750784724421e+00  9.3174426799514638e+00  9.3104732130557917e+00  9.0204470893286501e+00  9.0172784786210407e+00  9.0439258895607662e+00  9.0534996588743226e+00  9.0602207603315943e+00  9.0483801947745448e+00  9.0355265518188208e+00  9.0273350561428707e+00  9.0401376774889961e+00  9.0316617723838775e+00  9.2780666018568478e+00  9.2942130850491900e+00  9.2837691974466079e+00  9.3069692423747856e+00  8.9482790980140035e+00  8.9899556171391133e+00  8.9615600107482543e+00  8.9662477048624041e+00  8.9753546132105768e+00  8.9808929334742640e+00  8.9931852037542939e+00  8.9767402087299484e+00  9.2831532850914247e+00  9.3026788434880263e+00  9.2951933908820159e+00  9.3185285904237691e+00  9.2896423712260621e+00  9.2195372474625525e+00  9.1947953690406763e+00  9.2091941578666372e+00  9.1975267562546783e+00  9.3253630202664048e+00  9.3323260269301542e+00  9.3221937989633119e+00  9.3415634031343817e+00  8.9762201558103474e+00  8.9917597114035992e+00  8.9724903416993094e+00  9.0020887885134986e+00  8.9874281276553187e+00  8.9737805992158268e+00  9.0119450065207971e+00  8.9992907789356469e+00  8.9852935771135023e+00  8.9983346329981426e+00  8.9752954779492136e+00  9.3857444080295753e+00  9.4077891734853782e+00  9.4072841791647139e+00  9.3998753005597528e+00  9.3989870643605897e+00  9.3496256559083122e+00  9.3520831225693204e+00  9.4163982551712468e+00  9.4038005025474689e+00  9.3470238241270209e+00  9.3653812017476490e+00  9.2000490903432777e+00  9.2376732583959651e+00  9.2255567305510144e+00  9.2049486407914767e+00  9.2195605095322080e+00  9.2310955686698382e+00  9.2391189084181047e+00  9.2504919338363987e+00  9.2104352701511676e+00  9.2840481940114579e+00  9.2632654323956967e+00  9.1959147830753984e+00  9.1830175653460859e+00  9.1848645978471577e+00  9.1741743525277091e+00  9.1986429427594381e+00  9.3801102561825349e+00  9.3763659404962336e+00  9.3905633706619671e+00  9.0680727887755310e+00  9.0801760000020781e+00  9.0616508176468518e+00  9.0812605877646515e+00  9.1307579942110983e+00  9.1150474717038410e+00  9.1431028044479916e+00  9.1283428992276949e+00  9.1416976555752072e+00  9.1215546596610082e+00  9.1448561798450356e+00  9.1184811675580146e+00  9.1331226766967220e+00  9.1435944906637001e+00  9.1454241304576396e+00  9.1692370754934540e+00  9.1569117634034018e+00  9.1691242875060155e+00  9.1686505015643114e+00  9.1211289441642016e+00  9.1330609064281401e+00  9.1030573276034978e+00  9.1209505542401761e+00  9.1322471941573777e+00  9.0755795338161338e+00  9.1125059619097115e+00  9.1194754831518097e+00  9.1054061346928776e+00  9.0975952455598676e+00  9.0897921906203258e+00  9.1349529586678297e+00  9.1288354296548935e+00  9.1220294272977824e+00  9.0867995507271360e+00  9.0717153807804944e+00  9.0673650626304578e+00  9.0948267829867060e+00  9.3455627078630368e+00  9.3609496041012825e+00  9.3361630655948282e+00  9.1324397327389644e+00  9.1563462957814874e+00  9.1298271239989681e+00  9.1447429414113763e+00  9.4505322914577317e+00  9.4290271833046635e+00  9.4371228377234431e+00  9.4364073091772251e+00  9.4144949282033554e+00  9.4139161649434726e+00  9.4062696812946136e+00  9.1683599440862409e+00  9.4185959773153449e+00  9.4326919931147177e+00  9.4106971698882731e+00  9.2937992801192006e+00  9.3929218386801701e+00  9.4012960029605708e+00  9.3975977568733828e+00  9.2181459251147295e+00  9.2333404516341204e+00  9.2207345517759265e+00  9.2089472590364494e+00  9.2245223383987476e+00  9.2111240919936233e+00  9.4028889274990561e+00  9.2476035578896134e+00  9.2416803221412938e+00  9.2435774906706865e+00  9.2361324651100656e+00  9.2406643373213608e+00  9.2506467159171972e+00  9.2574239806748455e+00  9.1923097642962031e+00  9.1768819778316058e+00  9.1969832344771056e+00  9.1807003176159530e+00  9.1671957140953353e+00  9.2435301409101474e+00  9.2630380019054943e+00  9.2352414637134768e+00  9.1144149625298123e+00  9.1294250947148186e+00  9.1389315211762980e+00  9.1385230649332598e+00  9.0178704310320601e+00  9.0461566728367071e+00  9.0288673562628752e+00  9.0132019817119939e+00  9.0342764649518497e+00  9.0308470903769127e+00  9.0083877851235776e+00  9