<?xml version="1.0"?>
<VTKFile type="UnstructuredGrid"  version="0.1"  >
<UnstructuredGrid>
<Piece  NumberOfPoints="4751" NumberOfCells="20870">
<Points>
<DataArray  type="Float64"  NumberOfComponents="3"  format="ascii">43.265287 33.117399 12.936491  41.731102 32.60648175 12.8238095  42.13680575 32.36966225 12.08366025  42.12755075 31.9293545 13.20784575  40.9898145 30.74131 13.4792005  40.59336575 31.41843725 13.09516425  40.9990695 31.18161775 12.355015  41.0083245 31.6219255 11.2308295  40.60262075 31.858745 11.97097875  40.196917 32.0955645 12.711128  38.714342 28.365221 14.02191  39.05918075 30.90752 12.98248275  39.85207825000001 29.5532655 13.75055525  38.732852 29.2458365 11.773539  37.9214445 29.7194755 13.2538375  38.751362 30.126452 9.525168000000001  39.87058825 30.433881 11.50218425  37.9399545 30.600091 11.0054665  37.128547 31.07373 12.485765  39.4741395 31.11100825 11.118148  38.662732 31.58464725 12.5984465  39.87984325 30.87418875 10.37799875  50.191766 22.374606 10.777926  48.268819 22.6912915 11.055195  49.5510375 23.43801825 11.29036575  49.87138975 23.1274995 10.57503275  49.5510135 23.880393 10.3721395  47.94844275 23.444185 10.85230175  49.23066125 24.19091175 11.0874725  48.910309 24.5014305 11.8028055  47.6280905 23.75470375 11.56763475  46.345872 23.007977 11.332464  48.58917125 22.38077275 10.339862  48.268795 23.13366625 10.13696875  46.9865765 22.3869395 9.901797999999999  46.66622425 22.69745825 10.617131  48.910261 25.38618 9.966353  47.6280665 24.1970785 10.6494085  47.6280425 24.63945325 9.73118225  47.94841875 23.88655975 9.934075499999999  46.345848 23.45035175 10.41423775  46.66620025 23.139833 9.698904750000001  46.345824 23.8927265 9.4960115  48.910285 24.94380525 10.88457925  49.23063725 24.6332865 10.16924625  43.781387 22.399273 9.02567  45.0636295 22.703625 10.179067  45.0636055 23.14599975 9.26084075  45.38398175 22.39310625 9.463733999999999  47.378864 28.529519 8.792598999999999  46.1303595 27.95044375 7.606626499999999  47.38584950000001 28.7664575 7.70364725  47.7632795 28.0416295 8.1107245  48.147695 27.55374 7.42885  46.514775 27.46255425 6.924752  47.770265 28.278568 7.02177275  47.39283500000001 29.003396 6.6146955  42.160755 35.245644 10.780322  40.90438775 34.586499 9.982928250000001  39.177121 34.0739795 10.573528  40.4560585 32.686048 10.152745  45.59496 30.272371 11.860994  44.007386 29.6361075 12.37625825  44.37226325 29.437767 11.60835925  43.789845 30.149024 11.8772335  41.98473 30.025677 11.893473  42.202271 29.5127605 12.39249775  42.56714825 29.31442 11.62459875  43.1495665 28.603163 11.3557245  42.78468925 28.8015035 12.1236235  42.419812 28.999844 12.8915225  45.23008275 30.4707115 12.628893  43.42496775 30.3473645 12.6451325  44.8652055 30.669052 13.396792  43.64250875 29.834448 13.14415725  45.01254175 30.983628 12.12986825  44.4301235 31.694885 12.3987425  44.6476645 31.1819685 12.89776725  43.20742675 30.860281 12.14610775  44.135451 31.065733 14.93259  43.0600905 30.545705 13.4130315  43.91791000000001 31.5786495 14.43356525  44.28278725 31.380309 13.66566625  42.8425495 31.0586215 12.91400675  44.06524625 31.8932255 13.1666415  43.700369 32.091566 13.9345405  43.2776315 30.0327885 13.91205625  44.50032825 30.8673925 14.164691  42.6250085 31.571538 12.414982  43.482828 32.6044825 13.43551575  43.84770525 32.406142 12.66761675  40.704173 26.933955 10.850455  41.5619925 27.9668995 11.87098875  41.92686974999999 27.768559 11.10308975  41.3444515 28.479816 11.371964  40.902703 34.20266549999999 11.20668275  39.1980065 31.6430695 10.57910575  37.4724245 31.5143835 9.945951000000001  36.193487 32.902315 10.366734  37.91906899999999 33.031001 10.99988875  39.644651 33.159687 11.6330435  38.386599 32.1167085 12.05940425  36.661017 31.9880225 11.4262495  52.226008 19.312127 5.957001  51.21685650000001 19.57248875 6.71237775  51.450003 18.8951015 6.85188475  51.450003 19.17098775 6.1489375  50.673998 19.0298485 6.340873999999999  50.4408515 19.4313495 6.90431425  50.673998 18.75396225 7.04382125  50.673998 18.478076 7.7467685  50.4408515 19.15546325 7.6072615  50.207705 19.8328505 7.4677545  51.9928615 19.713628 6.52044125  51.759715 20.115129 7.0838815  50.98371 19.97398975 7.275818  51.2168565 19.2966025 7.415325  52.226008 19.03624075 6.659948249999999  52.226008 18.7603545 7.3628955  51.450003 18.61921525 7.554831999999999  51.9928615 19.43774175 7.2233885  52.226008 18.208582 8.768789999999999  51.450003 18.343329 8.257779249999999  51.9928615 18.88596925 8.629282999999999  52.226008 18.48446825 8.06584275  51.2168565 19.02071625 8.11827225  51.9928615 19.1618555 7.92633575  51.759715 19.5633565 8.489775999999999  51.293422 20.918131 8.210762000000001  50.7505635 20.37549075 7.83925825  50.98371 19.6981035 7.97876525  51.5265685 20.51663 7.647321750000001  51.5265685 20.24074375 8.350269000000001  51.759715 19.83924275 7.78682875  49.121988 18.74757 6.724747  49.6648465 19.29021025 7.096250749999999  49.897993 18.612823 7.235757749999999  49.897993 18.88870925 6.5328105  41.073092 35.488287 13.7689  39.300262 36.64273 15.6755275  38.0252055 34.3306545 13.5202955  39.88489300000001 36.641158 14.1331945  40.488461 35.489859 15.311233  39.90383 35.491431 16.853566  37.4405745 34.3322265 15.0626285  38.696694 37.794029 14.497489  36.8370065 35.4835255 13.88459  34.977319 33.173022 13.271691  46.9020455 25.73036525 10.21888625  48.149877 26.54171425 10.41688475  48.53272625 25.7558795 10.71032325  48.1551915 26.125579 11.4542935  46.52451075 26.10006475 10.9628565  47.77234225 26.91141375 11.160855  47.389493 27.6972485 10.8674165  46.1416615 26.8858995 10.669418  44.89383 26.0745505 10.4714195  48.52741175 26.17201475 9.672914500000001  48.1445625 26.9578495 9.379476  46.51919625 26.5162 9.92544775  47.76702775 27.327549 10.12344625  47.27958025 25.36066575 9.474916  46.896731 26.1465005 9.1814775  45.6488995 25.3351515 8.983478999999999  45.27136475 25.704851 9.727449249999999  46.136347 27.30203475 9.632009249999999  46.1310325 27.71817 8.594600499999999  46.51388175 26.93233525 8.888038999999999  44.8885155 26.49068575 9.434010749999999  45.26605025 26.12098625 8.690040499999999  44.883201 26.906821 8.396602  47.3841785 28.11338375 9.83000775  47.76171325 27.74368425 9.0860375  47.400122 26.864978 12.942234  46.146976 26.46976425 11.70682675  47.3948075 27.28111325 11.90482525  47.77765675000001 26.4952785 12.19826375  42.387538 25.284123 8.000605  43.640684 25.67933675 9.23601225  43.6353695 26.095472 8.198603500000001  44.01821875 25.30963725 8.492042  45.6850565 28.153883 9.361699249999999  45.264026 28.90183875 9.014250749999999  44.437225 27.342534 9.16370075  44.0161945 28.09048975 8.81625225  43.149188 29.2741585 9.2359025  43.5702185 28.52620275 9.583351  43.991249 27.778247 9.930799499999999  45.710002 28.46612575 8.247152  44.04114 28.4027325 7.701705  43.595164 28.8384455 8.468803749999999  44.4621705 27.65477675 8.049153499999999  46.93288800000001 28.965232 9.55969775  46.486912 29.400945 10.3267965  45.2390805 28.589596 10.128798  44.81805 29.33755175 9.781349500000001  44.7931045 29.025309 10.89589675  44.372074 29.77326475 10.54844825  46.040936 29.836658 11.09389525  41.9665075 26.03207875 7.6531565  42.76836299999999 27.27914075 8.618253750000001  43.214339 26.84342775 7.851155  42.34733249999999 28.0270965 8.27080525  42.79330849999999 27.5913835 7.5037065  41.545477 26.7800345 7.305708  43.18939349999999 26.531185 8.96570225  41.92630199999999 28.77505225 7.92335675  43.14937725 28.93866075 10.2958135  43.57040775 28.190705 10.643262  41.54566625 26.44453675 8.365619000000001  41.92649125 28.4395545 8.98326775  40.7037945 27.6049505 8.730633000000001  41.12463575 27.1924925 8.0181705  41.96669675 25.696581 8.713067500000001  42.34752175 27.69159875 9.33071625  41.124825 26.85699475 9.0780815  41.5458555 26.109039 9.42553  42.76855225 26.943643 9.678164750000001  41.12501425 26.521497 10.1379925  40.70398375 27.26945275 9.790544000000001  41.9266805 28.10405675 10.04317875  42.347711 27.356101 10.39062725  40.703416 28.275946 6.610811  41.1244465 27.52799025 6.9582595  40.70360525 27.94044825 7.670722  44.143971 32.936021 10.125626  41.5843625 33.8237985 9.73439825  42.5759705 32.668987 9.407050250000001  43.152363 34.0908325 10.452974  41.4476665 31.5312365 9.825397000000001  39.879666 31.2642025 9.106821249999999  41.00797 32.401953 8.6884745  43.42831875 33.948785 9.72083875  42.43671075 35.10359649999999 10.04818675  41.86031825 33.681751 9.002262999999999  42.7126665 34.961549 9.3160515  43.92412275 33.37137925 9.55716475  46.9335725 29.32199575 8.397161499999999  46.488281 30.1144725 8.001723999999999  46.940558 29.55893425 7.30820975  46.13997475000001 26.10072425 12.652551  45.27089275 27.21154125 13.248067  45.72613475 26.88222225 12.41928925  44.0521475 26.8994665 11.8963445  44.0107455 26.4472875 12.958384  44.4659875 26.1179685 12.12960625  43.59690550000001 27.2287855 12.72512225  43.1416635 27.5581045 13.5539  44.8798275 25.3364705 12.362868  42.359533 23.807963 11.783502  41.945693 24.589461 11.55024025  42.75059825 25.68303375 12.668701  43.20584025 25.35371475 11.83992325  42.33675825 26.46453175 12.43543925  42.79200025 26.13521275 11.6066615  41.531853 25.370959 11.3169785  43.61968025 24.57221675 12.073185  41.118013 26.152457 11.08371675  41.92291825 27.24602975 12.2021775  42.37816025 26.91671075 11.37339975  44.36831175 28.91523775 12.707447  43.145615 28.08063375 12.45481225  42.78073775 28.27897425 13.22271125  44.0034345 29.11357825 13.475346  45.5910085 29.74984175 12.96008175  45.22613125 29.94818225 13.72798075  45.587057 29.2273125 14.0591695  44.36436025 28.3927085 13.80653475  43.63855725000001 29.31191875 14.243245  44.861254 30.14652275 14.49587975  51.2162685 19.821402 5.90999125  50.207117 20.08176375 6.665368  50.4402635 19.68026275 6.10192775  50.206529 20.330677 5.8629815  50.983122 20.222903 6.4734315  51.759127 20.36404225 6.281495  51.5259805 20.76554325 6.844935250000001  51.292246 21
[...]
<PointData  Scalars="p"> 
<DataArray  type="Float64"  Name="p"  format="ascii">8.4992904175529151e+00  8.5129380394022238e+00  8.4978669664949802e+00  8.4980405351726649e+00  8.4969609319084594e+00  8.5120697119264221e+00  8.4963076647231723e+00  8.4964878307969727e+00  8.5118373361952759e+00  8.5271802116846391e+00  8.4955357827688047e+00  8.5266838170390962e+00  8.4961052329752302e+00  8.4928413262227647e+00  8.5264627452146815e+00  8.4940114083564318e+00  8.4946153353088665e+00  8.5257055332118448e+00  8.5575222074443076e+00  8.5108005151609394e+00  8.5420184108888222e+00  8.4951898694292272e+00  8.1485317387436389e+00  8.1873970566746568e+00  8.1904591941151121e+00  8.1696858454131434e+00  8.1912502856963556e+00  8.2089132995737870e+00  8.2114865503541274e+00  8.2317408128427410e+00  8.2299099285098265e+00  8.2275517094999522e+00  8.1657198547029033e+00  8.1878601773213067e+00  8.1834210618355030e+00  8.2055701066036093e+00  8.2337307814488074e+00  8.2303284142022353e+00  8.2318162336242136e+00  8.2099300519098755e+00  8.2278734612123650e+00  8.2065247318916441e+00  8.2293505329950687e+00  8.2322516678908340e+00  8.2127558641708678e+00  8.2242224123378449e+00  8.2251997087711715e+00  8.2266519596203018e+00  8.2027697317996697e+00  8.3204596348247559e+00  8.3180776671393719e+00  8.3186487928518726e+00  8.2992434274775650e+00  8.2773076379926245e+00  8.2963518622742516e+00  8.2975712284554159e+00  8.3177728320471136e+00  8.5383265349857300e+00  8.5425219000582899e+00  8.5636228644928689e+00  8.5177209784436165e+00  8.4059956463490337e+00  8.4214657753739584e+00  8.4059211887410630e+00  8.4307407197641329e+00  8.4563203903716353e+00  8.4470484825647745e+00  8.4314306206060667e+00  8.4059204712230464e+00  8.4219339673666624e+00  8.4379698837693304e+00  8.4209505940650189e+00  8.4459144020185999e+00  8.4362400171453586e+00  8.4370489601475107e+00  8.4298494022039652e+00  8.4536920153710593e+00  8.4447663885357844e+00  8.4549788326767743e+00  8.4664335545796234e+00  8.4611103734025885e+00  8.4743592759559601e+00  8.4596867884063620e+00  8.4697918097218370e+00  8.4682379697157213e+00  8.4825580309872901e+00  8.4526294758546854e+00  8.4515200650659388e+00  8.4786480676532854e+00  8.4909340549667753e+00  8.4769943421220706e+00  8.4062584414478110e+00  8.4224875253660265e+00  8.4059660615209921e+00  8.4322225913957940e+00  8.5424368886138424e+00  8.5215058374582959e+00  8.5436566336825699e+00  8.5912643684943220e+00  8.5685691675326670e+00  8.5469624983350378e+00  8.5519704546946276e+00  8.5740733749656410e+00  8.0000000000000000e+00  8.0168865640021707e+00  7.9999999999999991e+00  8.0000000000000000e+00  8.0000000000000000e+00  8.0194607756211429e+00  8.0000000000000000e+00  8.0000000000000018e+00  8.0192466487868828e+00  8.0392441717702567e+00  8.0127470634850280e+00  8.0291934443303550e+00  8.0348166913411490e+00  8.0165142608642697e+00  8.0000000000000000e+00  8.0000000000000000e+00  7.9999999999999991e+00  8.0124774445634745e+00  8.0000000000000000e+00  7.9999999999999991e+00  8.0127642338905414e+00  7.9999999999999991e+00  8.0167090063894282e+00  8.0124817237364407e+00  8.0291887962424155e+00  8.0660071861732980e+00  8.0538046745981209e+00  8.0347692814135740e+00  8.0472537330372873e+00  8.0472812408594905e+00  8.0289766274930781e+00  8.0000000000000018e+00  8.0216420979762475e+00  8.0000000000000000e+00  8.0000000000000000e+00  8.5743539046849850e+00  8.6280705258408563e+00  8.6020419871918570e+00  8.6107392138867649e+00  8.5922816610454991e+00  8.6107100314409859e+00  8.6206632734623572e+00  8.6460194768411380e+00  8.6395630190187642e+00  8.6323451296311600e+00  8.2743190120447441e+00  8.2763806745976147e+00  8.2551824667990239e+00  8.2769131731918044e+00  8.2958767808594711e+00  8.2974532982273477e+00  8.3179383224396499e+00  8.3169004618053002e+00  8.3156968981579755e+00  8.2554732070216676e+00  8.2774916997861947e+00  8.2960539675717673e+00  8.2977398823592701e+00  8.2526284273269841e+00  8.2750874560174967e+00  8.2723671040556237e+00  8.2941183204391997e+00  8.3176073327672313e+00  8.3193542466836199e+00  8.2973566461839248e+00  8.3163259964874712e+00  8.2953583774138586e+00  8.3180652240718480e+00  8.3187265948192248e+00  8.2993123567522655e+00  8.3193458198487846e+00  8.3172435208039435e+00  8.3181584164335174e+00  8.2984618049584267e+00  8.3153771891445931e+00  8.3149706099728160e+00  8.3166961422323187e+00  8.2932299168324857e+00  8.3416118849887795e+00  8.3620437144903086e+00  8.3410502044225758e+00  8.3620478701496630e+00  8.4041992769184617e+00  8.3840873941009022e+00  8.3638121178813911e+00  8.3404560312542237e+00  8.3613482382389037e+00  8.3828598838885195e+00  8.3398126524362954e+00  8.3418793181941364e+00  8.3635853348727220e+00  8.3637185650961996e+00  8.3834761546533123e+00  8.3856009494659567e+00  8.4046974434032702e+00  8.3851052408530453e+00  8.3387055672697379e+00  8.3620673609330947e+00  8.3391322861952091e+00  8.3834557265546223e+00  8.3612950760339597e+00  8.3612981504054105e+00  8.3404641229277470e+00  8.4046159088520138e+00  8.4046182715141136e+00  8.3849945215814898e+00  8.3610493115566555e+00  8.4041319793006508e+00  8.4041420644550158e+00  8.3828393556397280e+00  8.3386991667362835e+00  8.3834390403051291e+00  8.3828329044597769e+00  8.3612862786816766e+00  8.3625584339136640e+00  8.3836114520550780e+00  8.4046080785350270e+00  8.4045826570593309e+00  8.3843921144399634e+00  8.4062832424310052e+00  8.3836306713729982e+00  8.4046207678045306e+00  8.4660940941077847e+00  8.5180507176810263e+00  8.4807575675910076e+00  8.5027954028153019e+00  8.4793413638146440e+00  8.4950320479730408e+00  8.4962932019830664e+00  8.4924410535226791e+00  8.5284554498128315e+00  8.5078172824160028e+00  8.5185576674639467e+00  8.4741127102022595e+00  8.3418361344109435e+00  8.3635041733841806e+00  8.3408139560615897e+00  8.3188703532761501e+00  8.3617174519472357e+00  8.3396368414960804e+00  8.3608086398739854e+00  8.3623665381925161e+00  8.3396287347722247e+00  8.3828213871715178e+00  8.4046381607179992e+00  8.3182507694119110e+00  8.3170134268184412e+00  8.3398992753709571e+00  8.3630705193943591e+00  8.3396196713316524e+00  8.3840687952938229e+00  8.3613928567146640e+00  8.3620722965353220e+00  8.3175919234316389e+00  8.3840040059897358e+00  8.4048519680108615e+00  8.3829179875719539e+00  8.4047088260927367e+00  8.4047503400969266e+00  8.4213212913998774e+00  8.4208011646696761e+00  8.4047619416060275e+00  8.4204656173621437e+00  8.4044581481832470e+00  8.4044989819410212e+00  8.4368660888711648e+00  8.4362386081734506e+00  8.0165947757660643e+00  8.0381382266666872e+00  8.0189432797371190e+00  8.0381926491901865e+00  8.0340510339098472e+00  8.0286906584670632e+00  8.0462292708484711e+00  8.0642989948913488e+00  8.0523781421694274e+00  8.0127797901497022e+00  8.0292402498207700e+00  8.0462658126832665e+00  8.0531452842401006e+00  8.0648037620962292e+00  8.0526004814168353e+00  8.0647215658305331e+00  8.0208404123222685e+00  8.0661563146198354e+00  8.0734066190100826e+00  8.0733267822722539e+00  8.0589698576614524e+00  8.0594304142790669e+00  8.0813227720755396e+00  8.0803767641706337e+00  8.0801378787795439e+00  8.0856934009887222e+00  8.0942200662900863e+00  8.1060752118370107e+00  8.0938358163132662e+00  8.0592350914049753e+00  8.0382464443377284e+00  8.0390138167764054e+00  8.1473219733185633e+00  8.1147413752660960e+00  8.1268161053147931e+00  8.1155121964866446e+00  8.0422793442319822e+00  8.0427194133074060e+00  8.0204375139350610e+00  8.0205708937130389e+00  8.0000000000000000e+00  8.0425992493230947e+00  8.0000000000000000e+00  8.0437143090020644e+00  8.1437640615550091e+00  8.1081227016802995e+00  8.1089261673537099e+00  8.1382165248583007e+00  8.0987095200665209e+00  8.0690758796354149e+00  8.0688650311986514e+00  8.0701014649508469e+00  8.0241946234482651e+00  8.0253402025840010e+00  8.0549285800549750e+00  8.0996162190600121e+00  8.1315918010366399e+00  8.0530995473522609e+00  8.0647274069542476e+00  8.0736175402406971e+00  8.0820667009173714e+00  8.0524008240203084e+00  8.0598065744609588e+00  8.0734391343650369e+00  8.0642979494146516e+00  8.0382153503016784e+00  8.0858748443597381e+00  8.1066009746700711e+00  8.0851917196278098e+00  8.0948608334961651e+00  8.1063522013655707e+00  8.1165061951374184e+00  8.1276903691400602e+00  8.5183938889105359e+00  8.5184444058938062e+00  8.4812663414147185e+00  8.5029747078541078e+00  8.4802476127316240e+00  8.5383543160894337e+00  8.4926063831737011e+00  8.5284865990972172e+00  8.5081398969531197e+00  8.5185512104417143e+00  8.4895648883816044e+00  8.5006690771956652e+00  8.5087607305388495e+00  8.0730749219915747e+00  8.0849355232715077e+00  8.0737465557094659e+00  8.0599335151737552e+00  8.0855635707303239e+00  8.0944058418435798e+00  8.0848879854944879e+00  8.1060014037538490e+00  8.1267722045913953e+00  8.1057482972445491e+00  8.0000000000000018e+00  8.0000000000000000e+00  8.0000000000000000e+00  8.0318294173631646e+00  8.0000000000000000e+00  8.0278021236413188e+00  8.0000000000000000e+00  8.0000000000000000e+00  8.0311437188489467e+00  8.0000000000000000e+00  8.0414373178807637e+00  8.0616487212226993e+00  8.0719263977420006e+00  8.0401358692201015e+00  7.9999999999999991e+00  8.0000000000000000e+00  8.0000000000000000e+00  8.1262020272543616e+00  8.0711935059977229e+00  8.0996164656094294e+00  8.0894371448524929e+00  8.0000000000000000e+00  7.9999999999999991e+00  8.0166361498424781e+00  8.0124819837247259e+00  8.0000000000000000e+00  7.9999999999999991e+00  8.6104160017329985e+00  8.6626087761737605e+00  8.6388665087352230e+00  8.6456374020013875e+00  8.6279607815358315e+00  8.6570793853542991e+00  8.6798432607550176e+00  8.6751773608593616e+00  8.6699750777477007e+00  8.6202726271988510e+00  8.6312847080365600e+00  8.6115829653673845e+00  8.6508555112547540e+00  8.4608367552102042e+00  8.4808127398198820e+00  8.4743881490135742e+00  8.4764985901244394e+00  8.4521978251772811e+00  8.4652693007873214e+00  8.4468441528691809e+00  8.4375453669422757e+00  8.4741192699532473e+00  8.4696628468227910e+00  8.4892580283429613e+00  8.4824087915947839e+00  8.4908637211256828e+00  8.4221910612777169e+00  8.4505696817815714e+00  8.4213086731790856e+00  8.4217120337377231e+00  8.4208555836791543e+00  8.4457711557829942e+00  8.4360564026241303e+00  8.4367468198762534e+00  8.4446847303107244e+00  8.4595265562884787e+00  8.4681644959817035e+00  8.4512569830285891e+00  8.4523456260827299e+00  8.4653330582260740e+00  8.4377633257517228e+00  8.4372429483678886e+00  8.4498285155456454e+00  8.4213393600690285e+00  8.4214227102611670e+00  8.4505761298315463e+00  8.4223817337513598e+00  8.4209304927010500e+00  8.4205934353769205e+00  8.4364828029404357e+00  8.4210008229794404e+00  8.0738662630620102e+00  8.0811659087260104e+00  8.0806364154557446e+00  8.0598660313391814e+00  8.1146482653024936e+00  8.1055630167083912e+00  8.1261726412312463e+00  8.0946469560575007e+00  8.1459574000835335e+00  8.0939318948900159e+00  8.1258619118790989e+00  8.1144926659203804e+00  8.1461483744008820e+00  8.1467662382223036e+00  8.1159043417215031e+00  8.0434106641851635e+00  8.5857466678708363e+00  8.5472191219103006e+00  8.5560747782070408e+00  8.5751295044038436e+00  8.5665385640933795e+00  8.1425693155192782e+00  8.1079514333109159e+00  8.1082133465047708e+00  8.1369601047532036e+00  8.1369702043064720e+00  8.1424384745384071e+00  8.1434033017012215e+00  8.0694335540155357e+00  8.0986084610406959e+00  8.1303337502866242e+00  8.1646161238317827e+00  8.1598255850567902e+00  8.1825302109599978e+00  8.1604565915249534e+00  8.1639662126940387e+00  8.1643314361298422e+00  8.1824382232547102e+00  8.1603375227455732e+00  8.1519940083905418e+00  8.1556381674462255e+00  8.1550655592137407e+00  8.1791930947463847e+00  8.1765430725065347e+00  8.2004353058352564e+00  8.2022473569245395e+00  8.1791904550952523e+00  8.1687754971951811e+00  8.1683404291852852e+00  8.1906552956054970e+00  8.1871400486080450e+00  8.1870233182695742e+00  8.1686478923825625e+00  8.2095728721364818e+00  8.2060938622424828e+00  8.1906982403378379e+00  8.2124863998178963e+00  8.4524043345791835e+00  8.4373893806895151e+00  8.4376292440681198e+00  8.4211893618517930e+00  8.4045932702675223e+00  8.4214905023317144e+00  8.4213631843110086e+00  8.4043282212792008e+00  8.4041022048764837e+00  8.1423855518215174e+00  8.1648081049288628e+00  8.1828384987323801e+00  8.1366934126019199e+00  8.1596535745878249e+00  8.1606094074062341e+00  8.1361693892300018e+00  8.1243582792806954e+00  8.1298969537428718e+00  8.1520347650663894e+00  8.1766623343437583e+00  8.1507112065213612e+00  8.1547183345926317e+00  8.1237459579628695e+00  8.1557682536364453e+00  8.1794077499726132e+00  8.1789036726445694e+00  8.1759111156999094e+00  8.2006160151455116e+00  8.2244645665118394e+00  8.2025646216076691e+00  8.3410433058588396e+00  8.3630321181220175e+00  8.3402707740835691e+00  8.3619699293357819e+00  8.3384073916553927e+00  8.3630746208182245e+00  8.3618506099690215e+00  8.3399192292600475e+00  8.3840901775750023e+00  8.3835016730444973e+00  8.3848382755148574e+00  8.3379266564244432e+00  8.3605796258842382e+00  8.1446633561850401e+00  8.1089234967278880e+00  8.1373807087179273e+00  8.1387998503462775e+00  8.0243244539440397e+00  8.0982951546774924e+00  8.0533990838052265e+00  8.0534409282429031e+00  8.0694302302640253e+00  8.0991381857695615e+00  8.1260129421563523e+00  8.1242295684427752e+00  8.0883552525045417e+00  8.1302104101810677e+00  8.1297188873374040e+00  8.0874056853588066e+00  8.1236706628526623e+00  8.1318153980740195e+00  8.1243301487851376e+00  8.0877552948132951e+00  8.5420939429882026e+00  8.5612361576674072e+00  8.5375588902167987e+00  8.5562522398249374e+00  8.0166120825323315e+00  8.0343502607850610e+00  8.0187762952020041e+00  8.0383440477912735e+00  8.0000000000000000e+00  8.0206801186883308e+00  8.0204953426056989e+00  8.0000000000000000e+00  8.0000000000000000e+00  8.0000000000000000e+00  8.0000000000000000e+00  8.0208810811291364e+00  8.0000000000000000e+00  8.5955690051280982e+00  8.6017877335047679e+00  8.6117485398867544e+00  8.5742658538829097e+00  8.5916759600205594e+00  8.5638247706480648e+00  8.4609332017853891e+00  8.4742922478652396e+00  8.4764110595747511e+00  8.4563538206186113e+00  8.4469633317659447e+00  8.4891599341212238e+00  8.4824045166744675e+00  8.4322573405233854e+00  8.4743381849731492e+00  8.4920255075169528e+00  8.5183436414971698e+00  8.5226907807784311e+00  8.5324774944695427e+00  8.5374431567735236e+00  8.5278391920570584e+00  8.5325925383792356e+00  8.5516999276026926e+00  8.5374715608978793e+00  8.5562031449134217e+00  8.3618089101830915e+00  8.3832011743686348e+00  8.5820754277220512e+00  8.1821502141060520e+00  8.1787262843569302e+00  8.1762298240879812e+00  8.2221455479880845e+00  8.2012777114518194e+00  8.1996206411576189e+00  8.1995662549359007e+00  8.2226171160837875e+00  8.2013763984674508e+00  8.2227240885324946e+00  8.3627141812031773e+00  8.3837855267352381e+00  8.4040351546699537e+00  8.4040748371749228e+00  8.3833426957213693e+00  8.3837491653590721e+00  8.3624764980540593e+00  8.4045090514952090e+00  8.4044549966634570e+00  8.4044871612273351e+00  8.3850007830013613e+00  8.3842944314045909e+00  8.4045499846004397e+00  8.1072491676265290e+00  8.3162762854351495e+00  8.3167125520718415e+00  8.3389678401710885e+00  8.3138411526782008e+00  8.3152625891721836e+00  8.3133755550125166e+00  8.3375041037211535e+00  8.0000000000000000e+00  8.1654537234289126e+00  8.1826828270340162e+00  8.1611945506735957e+00  8.1609868989122525e+00  8.1830098860009457e+00  8.1789113794622370e+00  8.1760331727548188e+00  8.1518428261388252e+00  8.1558284023622463e+00  8.2014317319891941e+00  8.1764637828954871e+00  8.1994199117981239e+00  8.2219469558378702e+00  8.1518001067564825e+00  8.1793501312689258e+00  8.1993671095858893e+00  8.1763468571905218e+00  8.1559882101928078e+00  8.1796197978409886e+00  8.2240180854926344e+00  8.2002344415093944e+00  8.2224180420268098e+00  8.2023741263205228e+00  8.2225238551253721e+00  8.2004084261840031e+00  8.2015554357818328e+00  8.1550181119225265e+00  8.1505719505364755e+00  8.1506179815157349e+00  8.1757642354189777e+00  8.5920881795557040e+00  8.5749676901700624e+00  8.5560960914639121e+00  8.5226180829763152e+00  8.5420103843529400e+00  8.5369890208404247e+00  8.5087458078426899e+00  8.5185195112310108e+00  8.5324580032673527e+00  8.5278544956099847e+00  8.5610726715056593e+00  8.5374822352240294e+00  8.5284554012029155e+00  8.3407854898120224e+00  8.2719722678794128e+00  8.2498628545133297e+00  8.2278208377568465e+00  8.2301483926114987e+00  8.2507043517214012e+00  8.2521842100227385e+00  8.2275548254020201e+00  8.2315331494680581e+00  8.2298101922207056e+00  8.2513296433114380e+00  8.2319487819760759e+00  8.2305412999921312e+00  8.2514750172615976e+00  8.2716528007860326e+00  8.2501160002296512e+00  8.2321534644138001e+00  8.2478607692822319e+00  8.2252769454544978e+00  8.2490932279315405e+00  8.2482801051410544e+00  8.2711868920435236e+00  8.2705678010131329e+00  8.2266965557958542e+00  8.2292413095328971e+00  8.2928911462784569e+00  8.2709297920709481e+00  8.2929805996790140e+00  8.0594440252685455e+00  8.0812327539058906e+00  8.0428234990633527e+00  8.0430571615816202e+00  8.0441472565991869e+00  8.2920233900265909e+00  8.2707348906490754e+00  8.2920991297988724e+00  8.2703026736265262e+00  8.2921172446268816e+00  8.3623983283373207e+00  8.3833122282681281e+00  8.3837384299647741e+00  8.1867910518647129e+00  8.1897679016155198e+00  8.2087333072736133e+00  8.2111019453964911e+00  8.1686819560473314e+00  8.2085249699321672e+00  8.2109963228216785e+00  8.1904552115370635e+00  8.1871736653682472e+00  8.2052869224456497e+00  8.2061853311178421e+00  8.2094636952121132e+00  8.2121655655404666e+00  8.2051883134931032e+00  8.2279786313629284e+00  8.2251740426488844e+00  8.2247087335734168e+00  8.2541660337734513e+00  8.2734576404459137e+00  8.2526181228442557e+00  8.2756574030166057e+00  8.2957545214900765e+00  8.2509617025309669e+00  8.2763882506437092e+00  8.2984073157994196e+00  8.2725271243530027e+00  8.2477276375172348e+00  8.2491513514058425e+00  8.2938719046798521e+00  8.2713388579608633e+00  8.2704558103679950e+00  8.2509433405092594e+00  8.2928488964547409e+00  8.3165168238639264e+00  8.3150295101599330e+00  8.3157428054248061e+00  8.3382560188378090e+00  8.3383033572387006e+00  8.3148662554642048e+00  8.3141125802059115e+00  8.3142135473717520e+00  8.3378584071708897e+00  8.3609309915304628e+00  8.5446155794728380e+00  8.4750131722156326e+00  8.4767357486777239e+00  8.4661921136528182e+00  8.4513639990196676e+00  8.6114356312835678e+00  8.6321125860872208e+00  8.6507667280463600e+00  8.4218063160961769e+00  8.4360035780971590e+00  8.4368283935741619e+00  8.4204807396752628e+00  8.4213118094547710e+00  8.4201402816882140e+00  8.4201686097190986e+00  8.4512307491669283e+00  8.4358619764358700e+00  8.4059590341347423e+00  8.4058754292438458e+00  8.4660831150101590e+00  8.4506027750820891e+00  8.0000000000000000e+00  8.0187127586788236e+00  8.0191264795126713e+00  8.0346649741249614e+00  7.9999999999999991e+00  7.9999999999999991e+00  8.0000000000000000e+00  8.0311904027240804e+00  8.0000000000000000e+00  8.0269583020370199e+00  8.0266791751679545e+00  7.9999999999999991e+00  8.0000000000000000e+00  8.0000000000000000e+00  8.0238708102642899e+00  8.0000000000000000e+00  8.0241487985454452e+00  8.2054210797760057e+00  8.2250430977885607e+00  8.2246046836696305e+00  8.0602857735315094e+00  8.0713210693362942e+00  8.0984471575108525e+00  8.0413383142823438e+00  8.0608291115342912e+00  8.0983965228247552e+00  8.0718352189034555e+00  8.0994632967083255e+00  8.2480297157608877e+00  8.2485968014280253e+00  8.2468244607848114e+00  8.2712249586563580e+00  8.2481829984190362e+00  8.2486737639228824e+00  8.2713271386153728e+00  8.2468761873236236e+00  8.2705375119854612e+00  8.2941118859501035e+00  8.2717707481635525e+00  8.2940613283839433e+00  8.2748091545945819e+00  8