<?xml version="1.0"?>
<VTKFile type="UnstructuredGrid"  version="0.1"  >
<UnstructuredGrid>
<Piece  NumberOfPoints="4531" NumberOfCells="21397">
<Points>
<DataArray  type="Float64"  NumberOfComponents="3"  format="ascii">-52.226008 -4.497148 19.703294  -51.6187155 -4.61795875 20.03789025  -51.44276425 -4.21609525 19.68415025  -51.44276375 -4.94660225 19.500805  -50.6595195 -5.3960565 19.298316  -50.83547125 -5.067413 19.83540125  -50.65952 -4.6655495 19.48166125  -50.6595205 -3.9350425 19.6650065  -50.83547175 -4.336906 20.0187465  -51.011423 -4.7387695 20.3724865  -49.093031 -6.294965 18.893338  -49.26898275000001 -5.9663215 19.43042325  -49.0930315 -5.564458 19.07668325  -49.87627525000001 -5.845510750000001 19.095827  -50.052227 -5.516867250000001 19.63291225  -49.87627575 -5.11500375 19.27917225  -49.093032 -4.833951 19.2600285  -49.26898325000001 -5.2358145 19.6137685  -49.4449345 -5.637678 19.9675085  -49.093033 -3.372937 19.626719  -49.26898425 -3.7748005 19.980459  -49.0930325 -4.103444 19.44337375  -49.87627625 -4.38449675 19.4625175  -50.0522275 -4.78636025 19.8162575  -49.26898375 -4.5053075 19.79711375  -49.4449355 -4.176664 20.334199  -49.87627675 -3.65398975 19.64586275  -50.052228 -4.05585325 19.99960275  -49.796838 -4.980391 21.041679  -49.62088675 -4.5785275 20.687939  -49.444935 -4.907171 20.15085375  -50.22817875 -5.188223750000001 20.1699975  -50.22817925 -4.457716749999999 20.35334275  -49.62088625 -5.3090345 20.50459375  -50.4041305 -4.85958025 20.70708275  -52.226008 -7.383542 18.812959  -51.2092835 -6.92155125 19.4989525  -51.44276375 -7.11139775 18.83305375  -51.44276375 -6.38979925 19.0556375  -50.42603925 -5.9278085 19.741631  -50.6595195 -6.117655 19.07573225  -50.6595195 -6.8392535 18.8531485  -50.42603925 -6.649407 19.51904725  -50.192559 -6.4595605 20.184946  -51.99252775 -7.1936955 19.47885775  -51.2092835 -6.19995275 19.72153625  -50.97580325 -6.73170475 20.16485125  -51.7590475 -7.003849000000001 20.1447565  -52.226008 -6.6619435 19.03554275  -51.44276375 -5.66820075 19.27822125  -52.226008 -5.940345000000001 19.2581265  -51.99252775 -6.472097000000001 19.7014415  -51.99252775 -5.0289 20.146609  -52.226008 -5.2187465 19.48071025  -51.2092835 -5.478354250000001 19.94412  -51.99252775 -5.750498500000001 19.92402525  -51.7590475 -5.560652 20.589924  -51.292087 -6.624156 21.476554  -51.52556725 -6.814002500000001 20.81065525  -50.742323 -6.541858250000001 20.83075  -50.97580325 -6.01010625 20.387435  -51.52556725 -6.092404 21.033239  -51.7590475 -6.2822505 20.36734025  -49.64279500000001 -6.37726275 19.539142  -49.87627525000001 -6.56710925 18.87324325  -51.20928425 -7.6159805 19.20754225  -50.19255975 -7.15398975 19.89353575  -50.42604 -7.34383625 19.227637  -50.1925605 -7.848419 19.6021255  -50.975804 -7.426134 19.873441  -50.74232375 -7.2362875 20.53933975  -49.64279575 -7.071692000000001 19.24773175  -51.7583895 -4.742323000000001 20.7782335  -51.99186975 -4.210571 20.3349185  -51.151097 -4.86313375 21.11282975  -51.38457725 -4.33138175 20.66951475  -51.7577315 -3.923994 20.966543  -51.52425125 -4.455746 21.409858  -51.290771 -4.987498 21.853173  -51.38523525 -5.149710750000001 20.48120525  -51.52490925 -5.274075 21.2215485  -51.291429 -5.805827000000001 21.6648635  -50.91827475 -6.213214750000001 21.36783525  -51.151755 -5.68146275 20.92452025  -50.5444625 -5.8022735 21.2591165  -50.91761675 -5.39488575 21.55614475  -51.289455 -3.35084 22.229792  -51.290113 -4.169169 22.0414825  -50.91630075 -3.75822775 21.93276375  -51.52359325 -3.637417 21.5981675  -51.150439 -4.04480475 21.30113925  -50.5431465 -4.165615499999999 21.6357355  -50.91695875 -4.57655675 21.74445425  -50.5438045 -4.9839445 21.447426  -50.16999225 -4.573003249999999 21.33870725  -50.77728475 -4.4521925 21.004111  -50.17065025 -5.39133225 21.15039775  -50.77794275 -5.2705215 20.8158015  -48.921684 -8.036866 26.039924  -47.63784925 -7.62574625 25.349594  -47.934365 -7.873507249999999 24.671486  -47.63399525 -8.49879325 25.043568  -46.3463065 -8.960720500000001 24.047212  -46.3501605 -8.087673500000001 24.353238  -46.64667625 -8.3354345 23.67513  -46.947046 -7.7101485 23.303048  -46.65053025 -7.4623875 23.981156  -46.3540145 -7.2146265 24.659264  -44.972408 -7.383431 20.566172  -44.67589225 -7.13567 21.24428  -44.3755225 -7.760956 21.616362  -45.959727 -7.54678975 21.93461  -45.66321125 -7.29902875 22.612718  -45.3628415 -7.924314750000001 22.9848  -43.778637 -8.138481000000001 22.666552  -44.07900675 -7.513195000000001 22.29447  -44.3793765 -6.887909000000001 21.922388  -43.786345 -6.392387 23.278604  -44.08286074999999 -6.640148 22.600496  -43.782491 -7.265434000000001 22.972578  -45.3666955 -7.05126775 23.290826  -45.06632575 -7.67655375 23.662908  -45.06247175 -8.54960075 23.356882  -45.07017974999999 -6.80350675 23.968934  -47.28347575 -8.27120725 25.77666025  -45.995787 -8.7331345 24.78030425  -45.6452675 -8.5055485 25.5133965  -45.999641 -7.8600875 25.08633025  -43.4319715 -7.037848 23.70567025  -44.71195225 -8.322014750000001 24.08997425  -43.4281175 -7.910895 23.39964425  -43.07759799999999 -7.683309 24.1327365  -44.71580625 -7.44896775 24.39600025  -44.36143275 -8.094428749999999 24.8230665  -42.368851 -8.974231 24.986869  -42.7232245 -8.328769999999999 24.55980275  -43.073744 -8.556356000000001 23.8267105  -44.35757875 -8.96747575 24.5170405  -44.00705925 -8.73988975 25.25013275  -50.30650375 -3.504027 21.79328075  -50.74034949999999 -3.35636425 21.57902375  -50.191244 -3.3618885 20.9282555  -49.93334950000001 -3.91141475 21.4962525  -49.75739825 -3.50955125 21.1425125  -50.36719524999999 -3.763752 21.2819955  -49.32355250000001 -3.657214 21.3567695  -50.679658 -3.09663925 22.090309  -49.69670675 -3.24982625 21.65379775  -50.1305525 -3.1021635 21.43954075  -50.069861 -2.8424385 21.950826  -49.20829275 -3.5150755 20.49174425  -49.6421385 -3.36741275 20.27748725  -49.384244 -3.916939 20.84548425  -49.81808975 -3.76927625 20.63122725  -49.0323415 -3.113212 20.13800425  -49.581447 -3.10768775 20.7887725  -48.97165 -2.853487 20.6492895  -49.14760125 -3.2553505 21.0030295  -48.850267 -2.334037 21.67186  -49.08690975 -2.9956255 21.51431475  -48.9109585 -2.593762 21.16057475  -49.5207555 -2.84796275 21.30005775  -49.460064 -2.58823775 21.811343  -49.56019525000001 -4.3188025 21.19922425  -49.994041 -4.17113975 20.98496725  -48.66092424999999 -3.48387075 20.41261525  -48.8368755 -3.88573425 20.76635525  -48.776184 -3.62600925 21.2776405  -48.2288155 -3.5948045 21.1985115  -48.60023275 -3.22414575 20.9239005  -48.72161575 -3.74359575 19.90133  -48.897567 -4.14545925 20.25507  -48.3501985 -4.1142545 20.175941  -48.289507 -3.8545295 20.68722625  -48.53954125 -2.96442075 21.43518575  -47.607364 -4.855572 20.725163  -47.91808974999999 -4.22518825 20.96183725  -48.15473249999999 -4.88677675 20.804292  -47.97878125 -4.48491325 20.450552  -48.46545825 -4.256393 21.04096625  -48.52614975 -4.516118000000001 20.529681  -48.702101 -4.9179815 20.883421  -49.01282675 -4.28759775 21.12009525  -49.2494695 -4.94918625 20.96255  -49.07351825 -4.54732275 20.60881  -47.25476325 -7.27808875 26.11146775  -47.6328735 -6.633894 25.585238  -45.9709285 -6.866969 25.42113775  -46.34903875 -6.22277425 24.894908  -46.344063 -5.230922 25.130552  -45.96595275 -5.87511675 25.65678175  -45.58784249999999 -6.519311500000001 26.1830115  -48.91670825 -7.04501375 26.275568  -48.9117325 -6.0531615 26.511212  -47.2497875 -6.2862365 26.34711175  -47.62789775 -5.64204175 25.820882  -48.538598 -7.689208499999999 26.80179775  -48.53362225 -6.69735625 27.03744175  -48.155512 -7.341551 27.5636715  -46.87167725 -6.93043125 26.8733415  -48.901781 -4.069457 26.9825  -47.24481175 -5.29438425 26.58275575  -47.622922 -4.6501895 26.056526  -48.90675675 -5.06130925 26.746856  -48.52367075 -4.71365175 27.50872975  -48.5286465 -5.705503999999999 27.27308575  -46.8667015 -5.938579000000001 27.1089855  -48.1455605 -5.3578465 28.0349595  -47.38934 -6.646236 29.087419  -47.76745025 -6.00204125 28.56118925  -46.48859125 -6.58277375 27.63521525  -48.15053625 -6.34969875 27.7993155  -47.772426 -6.9938935 28.32554525  -44.68709375 -6.45584925 24.73080775  -45.06520399999999 -5.8116545 24.204578  -46.34269999999999 -4.32434375 25.30872475  -46.64002825 -4.6724245 24.6750665  -47.91888725 -4.091692 25.6010405  -46.9359935 -4.113927 24.219581  -44.970206 -4.158397 21.456662  -44.67287775 -3.81031625 22.09032025  -45.95309974999999 -4.136162000000001 22.8381215  -44.3769125 -4.36881375 22.54580575  -43.783619 -4.5792305 23.6349495  -44.07958425 -4.020733 23.179464  -45.35980625 -4.346578750000001 23.92726525  -45.6557715 -3.78808125 23.47177975  -44.3755495 -3.4622355 22.7239785  -44.67424075 -4.7168945 21.9121475  -44.3782755 -5.275392 22.367633  -45.6571345 -4.6946595 23.293607  -44.08094725 -4.927311250000001 23.00129125  -45.36116925 -5.253157 23.7490925  -43.784982 -5.48580875 23.45677675  -44.08231025 -5.8338895 22.8231185  -45.063841 -4.90507625 24.38275075  -45.35844324999999 -3.4400005 24.105438  -43.782256 -3.672652250000001 23.81312225  -44.07822125 -3.11415475 23.35763675  -45.062478 -3.998498 24.5609235  -51.75978175 -7.78508625 19.83634575  -51.5263015 -7.59523975 20.5022445  -50.743058 -8.01752475 20.230929  -51.2935555 -8.1866305 20.8597325  -51.29282125 -7.405393249999999 21.16814325  -45.989047 -5.199362 18.920205  -46.39362625 -5.113414499999999 19.3714445  -46.609399 -5.865057999999999 19.27770625  -46.765043 -5.47326275 18.91348825  -47.541039 -5.7471635 18.9067715  -47.01397824999999 -5.7791105 19.72894575  -47.16962225 -5.38731525 19.36472775  -47.385395 -6.13895875 19.2709895  -47.229751 -6.530754 19.6352075  -46.79820549999999 -5.027467 19.822684  -48.161391 -6.4128595 19.26427275  -48.56597025000001 -6.326912 19.71551225  -48.72161425 -5.935116750000001 19.35129425  -48.3501975 -5.5752685 19.8092505  -47.78997425 -6.05301125 19.722229  -48.1945535 -5.96706375 20.1734685  -48.0389095 -6.358859000000001 20.5376865  -47.63433025 -6.4448065 20.086447  -48.
[...]
<PointData  Scalars="p"> 
<DataArray  type="Float64"  Name="p"  format="ascii">1.0747849945111701e+01  1.0724744250715840e+01  1.0738545499785182e+01  1.0738983137832980e+01  1.0729756500084513e+01  1.0715895131221734e+01  1.0729898211513268e+01  1.0729159434031052e+01  1.0715514898154547e+01  1.0702051273550607e+01  1.0709644564185465e+01  1.0696718819472867e+01  1.0711265893040345e+01  1.0719992373766544e+01  1.0706577194595971e+01  1.0720806013624367e+01  1.0711777510794690e+01  1.0697647447883353e+01  1.0683728910298930e+01  1.0709661474478166e+01  1.0696420030458404e+01  1.0711262555884806e+01  1.0720657441600755e+01  1.0706826272686936e+01  1.0697546775649609e+01  1.0683347031880041e+01  1.0719534181121210e+01  1.0706091982905768e+01  1.0657658657430845e+01  1.0670425041467377e+01  1.0684032060229454e+01  1.0693158321566059e+01  1.0692826490046540e+01  1.0670700556066572e+01  1.0679715557989192e+01  1.0747829303743035e+01  1.0713511124094337e+01  1.0738520626047993e+01  1.0739804299640953e+01  1.0704242104259942e+01  1.0730065253337884e+01  1.0729128951655492e+01  1.0703946346198556e+01  1.0679188169608336e+01  1.0722917934483938e+01  1.0714158018396734e+01  1.0688898748657385e+01  1.0698319501256289e+01  1.0749349177490927e+01  1.0739939928782798e+01  1.0749828822233713e+01  1.0723762698130768e+01  1.0722920188851393e+01  1.0749347296558499e+01  1.0713795548602542e+01  1.0723763010459182e+01  1.0698327001510352e+01  1.0650965480885846e+01  1.0674217170479537e+01  1.0664787585275034e+01  1.0689038579929434e+01  1.0674214616147518e+01  1.0698644489387490e+01  1.0694110570203931e+01  1.0719511451939683e+01  1.0714582176187303e+01  1.0681092309276435e+01  1.0705342376667742e+01  1.0682020458553669e+01  1.0690506782690155e+01  1.0666807831922046e+01  1.0695876547554541e+01  1.0699070954767864e+01  1.0722871389440062e+01  1.0676988474483650e+01  1.0700373356370456e+01  1.0698206002036846e+01  1.0675416981279433e+01  1.0652982324176948e+01  1.0700355828314043e+01  1.0675474171398690e+01  1.0652492988195092e+01  1.0652923182811808e+01  1.0676368097898616e+01  1.0654705683997211e+01  1.0654011138017673e+01  1.0650735343076027e+01  1.0652376537117892e+01  1.0652914139099568e+01  1.0674044199504898e+01  1.0676381643797553e+01  1.0654818546586375e+01  1.0654010472576715e+01  1.0655318870066916e+01  1.0656405449797665e+01  1.0678241770531836e+01  1.0656288240260325e+01  1.0678175050982841e+01  1.0471815350158167e+01  1.0473480904587648e+01  1.0493997103396463e+01  1.0474118939198295e+01  1.0475959138160700e+01  1.0476063018037829e+01  1.0496855679886561e+01  1.0517968218820435e+01  1.0496459841178936e+01  1.0475222486509676e+01  1.0571986474934986e+01  1.0548090044859686e+01  1.0524944634591362e+01  1.0543876876826015e+01  1.0521314158211695e+01  1.0499628206957437e+01  1.0480480068425784e+01  1.0502558454846680e+01  1.0524871439773555e+01  1.0478874120140889e+01  1.0501941831298444e+01  1.0480221346990341e+01  1.0499029302525296e+01  1.0478090731391516e+01  1.0478161195462738e+01  1.0477021155835386e+01  1.0451864183217033e+01  1.0453391845948332e+01  1.0431131312350518e+01  1.0453051987519039e+01  1.0455350591527489e+01  1.0454820713512960e+01  1.0456326475314992e+01  1.0432511321035204e+01  1.0454280901299649e+01  1.0431813082342471e+01  1.0387186065763288e+01  1.0409933843851706e+01  1.0432976813518117e+01  1.0431856108797701e+01  1.0409613345194218e+01  1.0649817192923186e+01  1.0664605536090718e+01  1.0679065263446821e+01  1.0651844549851489e+01  1.0663842213181461e+01  1.0666883042977105e+01  1.0648704684615174e+01  1.0647504143131348e+01  1.0646536505259590e+01  1.0661441898665409e+01  1.0644082233181006e+01  1.0678414694481987e+01  1.0694050820234485e+01  1.0665926499888521e+01  1.0681377869638837e+01  1.0691015870021833e+01  1.0675939704174359e+01  1.0672651157038747e+01  1.0660631479441284e+01  1.0636737766887567e+01  1.0643089467094557e+01  1.0654555752262599e+01  1.0658084616203594e+01  1.0640492297137421e+01  1.0653562945535045e+01  1.0668825361230638e+01  1.0672745293583672e+01  1.0660272354362515e+01  1.0643009084939409e+01  1.0637236432392919e+01  1.0654920325900223e+01  1.0690805544025295e+01  1.0677740189343046e+01  1.0672052190576601e+01  1.0654538043379677e+01  1.0637336217919293e+01  1.0634842743880160e+01  1.0636408855973361e+01  1.0640663155187955e+01  1.0653395308794616e+01  1.0642205142067246e+01  1.0659152139129661e+01  1.0646406279724573e+01  1.0647924275573301e+01  1.0652071264317325e+01  1.0664827037949989e+01  1.0450474062707594e+01  1.0474517909018285e+01  1.0451412688463174e+01  1.0476056547050366e+01  1.0475745519716094e+01  1.0451649523388227e+01  1.0427880426281654e+01  1.0473008691394844e+01  1.0473216419834365e+01  1.0450923915279603e+01  1.0474476046496866e+01  1.0449746021262914e+01  1.0450156681515342e+01  1.0427462567096546e+01  1.0427691783108973e+01  1.0470562831911865e+01  1.0450366245911720e+01  1.0473357530436600e+01  1.0472373799493420e+01  1.0448822125311858e+01  1.0449849817159093e+01  1.0427626093777659e+01  1.0426872157954083e+01  1.0384189224781187e+01  1.0405184916433225e+01  1.0405195506120048e+01  1.0427396485207005e+01  1.0405449012654168e+01  1.0452353907865227e+01  1.0477627434638277e+01  1.0475548406958245e+01  1.0496357193332077e+01  1.0492962331482833e+01  1.0517175051989234e+01  1.0571802029616862e+01  1.0547861124881319e+01  1.0543365915739784e+01  1.0525047680437797e+01  1.0480833135810155e+01  1.0502602814034052e+01  1.0499398059172236e+01  1.0520773710793678e+01  1.0524590555511283e+01  1.0547975138189239e+01  1.0524789102258456e+01  1.0521203462033265e+01  1.0502692881154642e+01  1.0499288370746335e+01  1.0480393970993431e+01  1.0501884277527848e+01  1.0478229585517637e+01  1.0498461731952348e+01  1.0480211182882588e+01  1.0501614171966093e+01  1.0477826285032387e+01  1.0699173871110872e+01  1.0675607323542968e+01  1.0667356939325366e+01  1.0653229151954998e+01  1.0652622516612146e+01  1.0669471759017632e+01  1.0660640981085711e+01  1.0659910963480058e+01  1.0680065938626246e+01  1.0690228573536588e+01  1.0651481955616068e+01  1.0671144976042777e+01  1.0669944905018541e+01  1.0650065833445572e+01  1.0651896622392121e+01  1.0679700794706921e+01  1.0671283383612344e+01  1.0691167617074406e+01  1.0672514316651423e+01  1.0661525324207290e+01  1.0653218388556891e+01  1.0634241755953358e+01  1.0642096666261878e+01  1.0689165794064010e+01  1.0669088292696236e+01  1.0659717189071721e+01  1.0651758224858741e+01  1.0700092343710597e+01  1.0681314335441812e+01  1.0630050334724118e+01  1.0640094001223014e+01  1.0632577107255027e+01  1.0649385536318290e+01  1.0643176761264819e+01  1.0635007316842172e+01  1.0653727139809725e+01  1.0662356092675818e+01  1.0643289563096978e+01  1.0680543472217408e+01  1.0691188393379324e+01  1.0690850619435944e+01  1.0671313839103705e+01  1.0701426609945953e+01  1.0701578264132459e+01  1.0692109250164231e+01  1.0681891435413995e+01  1.0700562850264770e+01  1.0691987766568827e+01  1.0681356086682392e+01  1.0662266609204071e+01  1.0672795246255014e+01  1.0429602193206746e+01  1.0430045270488177e+01  1.0386867550274765e+01  1.0407280363157684e+01  1.0408894636181836e+01  1.0407551356286648e+01  1.0385756365601925e+01  1.0430478259614114e+01  1.0408819132144293e+01  1.0387393693135092e+01  1.0384827323723878e+01  1.0363900856460507e+01  1.0342837186453151e+01  1.0386636733583625e+01  1.0364058932557498e+01  1.0364712588885645e+01  1.0385490382170039e+01  1.0388652913697854e+01  1.0364366466470853e+01  1.0342229283520968e+01  1.0365507559001687e+01  1.0364991545961161e+01  1.0387951121841169e+01  1.0389054916816470e+01  1.0386758516143844e+01  1.0388439486819102e+01  1.0387532701550425e+01  1.0364059630229034e+01  1.0342038823985009e+01  1.0365407603253200e+01  1.0365063156427501e+01  1.0364190361613881e+01  1.0342478005333318e+01  1.0386141723744240e+01  1.0298229907152763e+01  1.0342886877582252e+01  1.0342858499658801e+01  1.0320243125041889e+01  1.0320997838930897e+01  1.0320338557595752e+01  1.0519440566572850e+01  1.0541776356956790e+01  1.0539664533233568e+01  1.0566757895764772e+01  1.0543560294729701e+01  1.0563497513553678e+01  1.0569549994988044e+01  1.0546050766716940e+01  1.0522872148058262e+01  1.0691220132488002e+01  1.0666969727954253e+01  1.0681561180946467e+01  1.0668942066259371e+01  1.0559778481632595e+01  1.0540699114545507e+01  1.0563521538815356e+01  1.0540039218514337e+01  1.0519918333305917e+01  1.0542236987576903e+01  1.0566869484230835e+01  1.0543699114167795e+01  1.0520874975565572e+01  1.0537557877878289e+01  1.0516849396117991e+01  1.0515223156672290e+01  1.0518020347139657e+01  1.0495598294773044e+01  1.0497906848187840e+01  1.0493170161897950e+01  1.0569716373472957e+01  1.0546255726416957e+01  1.0523113018762098e+01  1.0500298355991774e+01  1.0559295662058393e+01  1.0560958932008592e+01  1.0563802171442916e+01  1.0539254313630801e+01  1.0540164372378287e+01  1.0564215585225108e+01  1.0561605368071934e+01  1.0561190115963440e+01  1.0538215122163704e+01  1.0515367663390929e+01  1.0678160648391328e+01  1.0678455451482863e+01  1.0659464738687660e+01  1.0665121012114691e+01  1.0648816484129123e+01  1.0671009312466452e+01  1.0645100077953730e+01  1.0667634573606545e+01  1.0691594716179836e+01  1.0641206589285179e+01  1.0664047726954360e+01  1.0623999662904115e+01  1.0620236521398175e+01  1.0596724024107717e+01  1.0616332422789139e+01  1.0539108464841147e+01  1.0517994478320748e+01  1.0519579563754629e+01  1.0498193917470067e+01  1.0537240344483074e+01  1.0495536851787158e+01  1.0515878179443181e+01  1.0514567478079474e+01  1.0562605802720187e+01  1.0543071533882319e+01  1.0541204953171793e+01  1.0565546462397968e+01  1.0545542901699076e+01  1.0522775913351762e+01  1.0568595476881047e+01  1.0564017153024174e+01  1.0566742447465774e+01  1.0561339955292357e+01  1.0539906606275451e+01  1.0564312819360978e+01  1.0561899049832935e+01  1.0538030253285257e+01  1.0561388031844043e+01  1.0516135764401358e+01  1.0514612158603700e+01  1.0538054116463970e+01  1.0514853631863504e+01  1.0515711329386903e+01  1.0493821156156139e+01  1.0496145574886373e+01  1.0494146805354308e+01  1.0428179634657393e+01  1.0385923820183667e+01  1.0386407058797952e+01  1.0406640257035432e+01  1.0385530953929335e+01  1.0363017479346491e+01  1.0341685481374945e+01  1.0339597460057666e+01  1.0363079199764341e+01  1.0362670464037654e+01  1.0340498887456640e+01  1.0341867643438816e+01  1.0340874702504433e+01  1.0298337828791832e+01  1.0318285294644120e+01  1.0320034241657018e+01  1.0298485574257249e+01  1.0298496148234191e+01  1.0318933335044774e+01  1.0320542616347305e+01  1.0319316656459629e+01  1.0319547300246766e+01  1.0298415641188026e+01  1.0646282565126329e+01  1.0660035239696670e+01  1.0661577635714123e+01  1.0641221205761569e+01  1.0674324141514022e+01  1.0675727284197306e+01  1.0655960390786614e+01  1.0654892718421241e+01  1.0635811638570686e+01  1.0648407354300426e+01  1.0676905187017077e+01  1.0662381910430309e+01  1.0664541611324141e+01  1.0645656426066127e+01  1.0657428442478956e+01  1.0638292786639308e+01  1.0643524992554836e+01  1.0652114804970703e+01  1.0650354540559229e+01  1.0452842757921026e+01  1.0430263100472207e+01  1.0455224572940303e+01  1.0454426107648425e+01  1.0456374949225806e+01  1.0432270352888599e+01  1.0454525890014487e+01  1.0456289293492594e+01  1.0432105337009588e+01  1.0431173184662725e+01  1.0409513703156723e+01  1.0432918411209023e+01  1.0431534293936231e+01  1.0408953777891734e+01  1.0409598262023017e+01  1.0363143279622605e+01  1.0363238311753134e+01  1.0340929840321268e+01  1.0577016617408443e+01  1.0578636891020668e+01  1.0597889007782074e+01  1.0581968396820551e+01  1.0596899090504037e+01  1.0595286508572418e+01  1.0580470704954054e+01  1.0587799209336975e+01  1.0588888760114514e+01  1.0605357963285119e+01  1.0584010536359644e+01  1.0585343581319808e+01  1.0604803536955462e+01  1.0603550152369749e+01  1.0601571253831205e+01  1.0621320692843533e+01  1.0600781213615583e+01  1.0621335106961700e+01  1.0617029932152350e+01  1.0616122947172896e+01  1.0617269093523561e+01  1.0599321485080090e+01  1.0620645673328911e+01  1.0614529684012847e+01  1.0619231732545089e+01  1.0647456018946341e+01  1.0641905536467538e+01  1.0661583619070516e+01  1.0641503575221339e+01  1.0647557453645080e+01  1.0635992872403621e+01  1.0577525682006906e+01  1.0581378405672117e+01  1.0581192384147586e+01  1.0595313250540139e+01  1.0595693327185392e+01  1.0588721991485052e+01  1.0586844323944941e+01  1.0601420294215171e+01  1.0584300510008518e+01  1.0603501081574485e+01  1.0604707651431916e+01  1.0585271139548723e+01  1.0598684075290043e+01  1.0618130846253178e+01  1.0619564234826806e+01  1.0599865171352526e+01  1.0612864080614802e+01  1.0614259583755482e+01  1.0615831303725187e+01  1.0600216772695195e+01  1.0620103686708154e+01  1.0614823336453481e+01  1.0622452758497209e+01  1.0616975939728707e+01  1.0593103920950195e+01  1.0617108453352019e+01  1.0627757737856925e+01  1.0604442287842149e+01  1.0623034265642554e+01  1.0598913170481376e+01  1.0628631251909967e+01  1.0575784473660905e+01  1.0604792518869647e+01  1.0581481369158102e+01  1.0611172376247859e+01  1.0566688196652795e+01  1.0573612565713745e+01  1.0549299827683880e+01  1.0574107398950771e+01  1.0570370989387065e+01  1.0569990369343357e+01  1.0573522885423429e+01  1.0546388836684876e+01  1.0549259840154988e+01  1.0525547284502807e+01  1.0406558095645167e+01  1.0432684227429958e+01  1.0408890591884930e+01  1.0410553265315095e+01  1.0410666886036253e+01  1.0430021642736079e+01  1.0407953744779487e+01  1.0450802471451629e+01  1.0429555736890284e+01  1.0428569405706773e+01  1.0406557798327173e+01  1.0407748905478686e+01  1.0623126266076778e+01  1.0594806478115039e+01  1.0618143356241315e+01  1.0605355547917050e+01  1.0627880381767953e+01  1.0604692728057559e+01  1.0578098011253969e+01  1.0600177120873767e+01  1.0583036449301479e+01  1.0600178542278057e+01  1.0582915520786605e+01  1.0577502098585311e+01  1.0581834661879974e+01  1.0629203988732066e+01  1.0624742535349839e+01  1.0630483778730614e+01  1.0606603031770646e+01  1.0601363791726264e+01  1.0605699977349527e+01  1.0582586947277248e+01  1.0619955887053322e+01  1.0626204630061252e+01  1.0631596797778602e+01  1.0685753769604132e+01  1.0688912514671951e+01  1.0704169747161076e+01  1.0729740391458570e+01  1.0710495892211803e+01  1.0701025902777644e+01  1.0682391332885761e+01  1.0719985699878160e+01  1.0713463039318833e+01  1.0691000022355880e+01  1.0703898623332281e+01  1.0688782102938093e+01  1.0624318705454153e+01  1.0626048008239346e+01  1.0622749131820974e+01  1.0620856733956158e+01  1.0629188723236513e+01  1.0630531567763988e+01  1.0602574017187191e+01  1.0627713789933374e+01  1.0605686926984953e+01  1.0604583684212891e+01  1.0601323319511973e+01  1.0581787467211866e+01  1.0627525964804608e+01  1.0669481327990772e+01  1.0661509502227506e+01  1.0660958070458051e+01  1.0636569676124848e+01  1.0628807385430395e+01  1.0628812634594963e+01  1.0652608387126131e+01  1.0653193690732355e+01  1.0653003413130710e+01  1.0644528645512063e+01  1.0612569717097108e+01  1.0636581413849964e+01  1.0620134006619184e+01  1.0612043220408172e+01  1.0628076097557207e+01  1.0596033950059946e+01  1.0644532566776689e+01  1.0645130193488081e+01  1.0644987386017013e+01  1.0644089862383257e+01  1.0739821941563791e+01  1.0730073967103229e+01  1.0714101709105083e+01  1.0749368971257734e+01  1.0723713698725259e+01  1.0749850365199967e+01  1.0739946661615170e+01  1.0698531090888723e+01  1.0711278277904631e+01  1.0711800215664853e+01  1.0701481132277793e+01  1.0692150530898733e+01  1.0720803316019829e+01  1.0720667987325434e+01  1.0673332141062579e+01  1.0680530570771891e+01  1.0680086023558763e+01  1.0690257643368296e+01  1.0671297549587855e+01  1.0691191865138869e+01  1.0690825317517209e+01  1.0671678974308936e+01  1.0701440592907053e+01  1.0682093628982061e+01  1.0701577031338161e+01  1.0681316697340584e+01  1.0662781276047863e+01  1.0700114030171960e+01  1.0663099909211947e+01  1.0658919490346021e+01  1.0639987806475608e+01  1.0640788012561194e+01  1.0646490552908048e+01  1.0600992996499352e+01  1.0621864964785217e+01  1.0620300469986551e+01  1.0625989484469677e+01  1.0620552899623034e+01  1.0681205552698620e+01  1.0690873812862748e+01  1.0670428488802255e+01  1.0690982836655062e+01  1.0671150293601464e+01  1.0660767579316415e+01  1.0681372101299825e+01  1.0671706887004259e+01  1.0700574553842166e+01  1.0679848327590875e+01  1.0659528601209210e+01  1.0644577491320344e+01  1.0620221092329535e+01  1.0635188455523599e+01  1.0645802002690992e+01  1.0610853391690364e+01  1.0620897624732963e+01  1.0596175334367270e+01  1.0644534699066803e+01  1.0620583533604997e+01  1.0636307576409550e+01  1.0612594884016710e+01  1.0589480317544972e+01  1.0597029591430859e+01  1.0620131982901174e+01  1.0628144339329740e+01  1.0635995303794690e+01  1.0597069481719085e+01  1.0612368018037541e+01  1.0596030621498349e+01  1.0589182873958899e+01  1.0604683024754218e+01  1.0611758742565721e+01  1.0627538553914667e+01  1.0627308939208712e+01  1.0625543077619271e+01  1.0661991951036645e+01  1.0652957364075288e+01  1.0671930269361503e+01  1.0671160617356493e+01  1.0681369566217167e+01  1.0662278398705361e+01  1.0671715403838178e+01  1.0681218407933926e+01  1.0690985698344472e+01  1.0671554915173928e+01  1.0671154994937444e+01  1.0681321801285772e+01  1.0662660627895633e+01  1.0663114649989607e+01  1.0636825952187905e+01  1.0645765736235292e+01  1.0645764874940479e+01  1.0620804588087728e+01  1.0629670801314195e+01  1.0628626548734282e+01  1.0628570146739566e+01  1.0604923216536271e+01  1.0597912425478160e+01  1.0627730497996664e+01  1.0604624282031086e+01  1.0601681197526291e+01  1.0605396924060310e+01  1.0583155211011277e+01  1.0579549631472222e+01  1.0583131760517785e+01  1.0579282718261544e+01  1.0582584356634598e+01  1.0582012969444140e+01  1.0585676488506166e+01  1.0601274853369091e+01  1.0585159768443503e+01  1.0580862189169133e+01  1.0299041184538932e+01  1.0299574950649019e+01  1.0282441425924553e+01  1.0299916262654286e+01  1.0299563256943259e+01  1.0299118921597373e+01  1.0281417582375106e+01  1.0265678453825663e+01  1.0282384514865386e+01  1.0275124602228910e+01  1.0276228024538701e+01  1.0252803106935714e+01  1.0259435069765889e+01  9.9275794310485370e+00  9.9259672921574502e+00  9.9125364097127360e+00  9.9425948490000255e+00  9.9437996468104295e+00  9.8970940157258713e+00  9.9096818486298783e+00  9.9238724006419918e+00  9.9906255058230737e+00  9.9588073301850528e+00  9.9762261953406064e+00  9.9587378529841182e+00  9.9428608503492075e+00  9.9600632421799880e+00  9.9421964213252600e+00  1.0058348823762874e+01  1.0026703487257484e+01  1.0052704518379670e+01  1.0043868391945924e+01  1.0041577541494354e+01  1.0028735573862026e+01  1.0037622741618197e+01  1.0046363408788613e+01  1.0061339926395313e+01  1.0064517547149245e+01  1.0055508896920125e+01  1.0046497436669759e+01  9.9962254370319048e+00  1.0021830385802044e+01  1.0012887198048965e+01  1.0011126404017238e+01  1.0071230993002567e+01  1.0058427440727609e+01  1.0049229684669712e+01  1.0033211995486646e+01  1.0067835722071251e+01  1.0165629963147030e+01  1.0166175534081718e+01  1.0156826135552837e+01  1.0166457915488799e+01  1.0166459415683379e+01  1.0156765400147130e+01  1.0166424547830010e+01  1.0157096808207234e+01  1.0147764314553978e+01  1.0166348787862489e+01  1.0129387044862055e+01  1.0147208735874546e+01  1.0138554047142833e+01  1.0147588503197424e+01  1.0566805728559002e+01  1.0573624806477605e+01  1.0549252519625931e+01  1.0570415080724882e+01  1.0574317195983960e+01  1.0546389729263828e+01  1.0570246353738131e+01  1.0549396478831891e+01  1.0573910913236931e+01  1.0525445934765838e+01  1.0125541129794325e+01  1.0133212808342604e+01  1.0143673002906457e+01  1.0151808721012213e+01  1.0137269162745913e+01  1.0129428955331413e+01  1.0121443050101885e+01  1.0146191232425375e+01  1.0137903534587823e+01  1.0156702307342504e+01  1