<?xml version="1.0"?>
<VTKFile type="UnstructuredGrid"  version="0.1"  >
<UnstructuredGrid>
<Piece  NumberOfPoints="4651" NumberOfCells="20727">
<Points>
<DataArray  type="Float64"  NumberOfComponents="3"  format="ascii">-33.46713 35.789794 -27.111655  -30.985702 33.966886 -26.345189  -31.6828435 34.4395005 -24.8604795  -32.3309525 33.0809765 -25.848284  -31.194775 30.372159 -24.584913  -29.8495245 31.2580685 -25.081818  -30.546666 31.730683 -23.5971085  -29.898557 33.089207 -22.609304  -29.2014155 32.6165925 -24.0940135  -28.504274 32.143978 -25.578723  -42.132673 23.06294 -28.791295  -40.312967 22.79049625 -28.701262  -40.604459 22.0161115 -28.8988445  -40.87983025 22.384583 -28.2450985  -39.6269875 21.706226 -27.698902  -38.784753 21.74366775 -28.8088115  -39.06012425 22.11213925 -28.1550655  -39.35161625 21.3377545 -28.352648  -39.076245 20.969283 -29.006394  -38.493261 22.5180525 -28.611229  -41.2904385 23.10038175 -29.9012045  -41.56580975 23.46885325 -29.2474585  -40.9989465 23.8747665 -29.703622  -39.4707325 22.827938 -29.8111715  -39.74610375 23.1964095 -29.1574255  -40.72357525 23.506295 -30.357368  -40.448204 23.1378235 -31.011114  -41.85730175 22.6944685 -29.445041  -41.5819305 22.325997 -30.098787  -40.03759575 22.42202475 -29.355008  -40.32908775 21.64764 -29.5525905  -41.01506725 22.73191025 -30.5549505  -41.031188 21.589054 -31.406279  -39.7622245 22.05355325 -30.008754  -40.0537165 21.2791685 -30.2063365  -41.30655925 21.9575255 -30.752533  -40.739696 22.36343875 -31.2086965  -39.86522 24.686593 -30.615949  -39.17924050000001 23.60232275 -29.613589  -40.156712 23.91220825 -30.8135315  -40.43208325000001 24.28067975 -30.1597855  -37.121302 20.349512 -26.606509  -37.8072815 21.43378225 -27.608869  -38.0987735 20.6593975 -27.8064515  -38.37414475 21.027869 -27.1527055  -47.35853 10.924067 -27.817879  -45.246866 11.45253725 -28.071133  -45.66002275 11.71429875 -27.3005915  -45.6943715 10.6509055 -27.69485675  -44.030213 10.377744 -27.5718345  -43.5827075 11.17937575 -27.94811075  -43.99586425 11.44113725 -27.17756925  -43.9615155 12.5045305 -26.783304  -43.54835875000001 12.242769 -27.5538455  -43.135202 11.9810075 -28.324387  -46.9110245 11.72569875 -28.19415525  -46.46351900000001 12.5273305 -28.5704315  -44.79936050000001 12.254169 -28.44740925  -45.21251725 12.5159305 -27.67686775  -46.10752825 10.912667 -26.92431525  -44.8565265 10.901267 -26.0307515  -44.409021 11.70289875 -26.40702775  -44.44336975 10.6395055 -26.801293  -45.568508 14.130594 -29.322984  -44.351855 13.05580075 -28.8236855  -44.76501175 13.31756225 -28.053144  -46.0160135 13.32896225 -28.94670775  -42.354523 10.878467 -24.243624  -41.94136625 10.6167055 -25.0141655  -43.15801925 11.69149875 -25.513464  -43.192368 10.6281055 -25.90772925  -42.7448625 11.42973725 -26.2840055  -42.77921125 10.366344 -26.67827075  -41.5282095 10.354944 -25.784707  -43.60552475 10.889867 -25.13718775  -40.701896 9.831421000000001 -27.32579  -41.11505275 10.0931825 -26.5552485  -42.33170575 11.16797575 -27.054547  -42.3660545 10.1045825 -27.44881225  -41.918549 10.90621425 -27.8250885  -45.563908 18.348066 -26.893842  -44.34709275 17.2338565 -26.548159  -44.348079 18.1650075 -25.942861  -44.76834825 17.366726 -25.73690925  -43.9727885 16.385386 -24.5799765  -43.13126375 17.050798 -25.597178  -43.551533 16.2525165 -25.39122625  -43.55251925 17.1836675 -24.78592825  -43.13225 17.981949 -24.99188  -43.1302775 16.119647 -26.202476  -42.381669 14.422706 -22.266111  -41.54014425 15.088118 -23.2833125  -41.9604135 14.2898365 -23.07736075  -43.17722875 15.404046 -23.42304375  -42.335704 16.069458 -24.44024525  -42.75597325 15.2711765 -24.2342935  -41.539158 14.156967 -23.8886105  -41.11888875 14.9552485 -24.09456225  -40.6986195 15.75353 -24.300514  -41.96139975 15.2209875 -22.47206275  -42.7569595 16.2023275 -23.6289955  -41.5411305 16.019269 -22.6780145  -41.119875 15.8863995 -23.48926425  -40.700592 17.615832 -23.089918  -40.69960575 16.684681 -23.695216  -41.12086125 16.8175505 -22.88396625  -42.33669025 17.000609 -23.83494725  -41.91543475 16.8677395 -24.646197  -41.9144485 15.9365885 -25.251495  -41.916421 17.7988905 -24.040899  -40.696647 13.891228 -25.51111  -40.69763325 14.822379 -24.905812  -41.1179025 14.0240975 -24.69986025  -42.33471775 15.138307 -25.04554325  -41.91346224999999 15.0054375 -25.856793  -44.118743 25.302534 -23.43754  -42.76705425 24.24730275 -23.47809  -42.76993350000001 25.0813095 -22.6047665  -43.2664675 24.2066155 -22.610093  -42.414192 23.110697 -21.782646  -41.41824475 24.02607825 -22.6453165  -41.91477875 23.15138425 -22.650643  -41.917658 23.985391 -21.7773195  -41.42112400000001 24.860085 -21.771993  -41.4153655 23.1920715 -23.51864  -40.709641 20.91886 -20.127752  -39.71369375 21.83424125 -20.9904225  -40.21022775 20.95954725 -20.995749  -41.06250325 22.05546575 -21.823196  -40.06655600000001 22.970847 -22.6858665  -40.56309 22.096153 -22.691193  -39.7108145 21.0002345 -21.863746  -39.2142805 21.8749285 -21.8584195  -38.7177465 22.7496225 -21.853093  -40.21310699999999 21.793554 -20.1224255  -40.56596924999999 22.93015975 -21.8178695  -39.716573 22.668248 -20.117099  -39.21715975 22.70893525 -20.985096  -41.5619165 22.0147785 -20.955199  -41.0653825 22.8894725 -20.9498725  -40.06943525 23.80485375 -21.812543  -38.72062575 23.58362925 -20.9797695  -40.5688485 23.7641665 -20.944546  -38.711988 21.081609 -23.59974  -38.71486725 21.91561575 -22.7264165  -39.21140124999999 21.04092175 -22.731743  -40.06367675 22.13684025 -23.55919  -48.892552 15.381405 -22.559494  -48.1351425 16.07628075 -23.5791065  -48.51483450000001 15.266923 -23.38233125  -46.88513925 15.951088 -22.6829235  -44.8777265 16.520771 -22.806353  -46.12772975 16.64596375 -23.702536  -46.50742175000001 15.836606 -23.50576075  -48.137117 15.152441 -24.2051685  -47.757425 15.96179875 -24.40194375  -47.377733 16.7711565 -24.598719  -47.26483125 15.14173025 -22.48614825  -45.63711050000001 14.9020555 -22.4128025  -46.88711375 15.02724825 -23.3089855  -45.2574185 15.71141325 -22.60957775  -48.51286 16.19076275 -22.75626925  -46.50544725 16.76044575 -22.87969875  -48.133168 17.0001205 -22.9530445  -47.75545049999999 16.8856385 -23.77588175  -47.373784 18.618836 -23.346595  -47.3757585 17.69499625 -23.972657  -47.753476 17.80947825 -23.14981975  -46.12575525 17.5698035 -23.076474  -47.381682 14.923477 -25.850843  -46.13167875 14.79828425 -24.95466  -46.12970425 15.722124 -24.328598  -46.50939625 14.91276625 -24.13182275  -44.879701 15.59693125 -23.432415  -45.259393 14.7875735 -23.23563975  -44.8816755 14.6730915 -24.058477  -47.37970749999999 15.84731675 -25.224781  -47.7593995 15.037959 -25.02800575  -43.63167225 14.54789875 -23.162294  -43.62969775000001 15.4717385 -22.536232  -44.00938975 14.66238075 -22.33945675  -50.19105 12.415688 -21.510677  -48.56280674999999 11.4039275 -21.88864725  -48.8853695 11.5477145 -21.1196025  -50.19317225 11.5784405 -21.9090425  -50.1952945 10.741193 -22.307408  -48.564929 10.56668 -22.28701275  -48.88749175 10.710467 -21.517968  -47.579689 10.679741 -20.728528  -47.25712625 10.535954 -21.49757275  -46.9345635 10.392167 -22.2666175  -49.86848725 12.271901 -22.27972175  -49.8706095 11.4346535 -22.67808725  -49.5459245 12.128114 -23.0487665  -48.240244 11.2601405 -22.657692  -50.199539 9.066698000000001 -23.104139  -48.56705125 9.729432500000001 -22.68537825  -48.89173625 9.035972000000001 -22.314699  -48.889614 9.873219500000001 -21.9163335  -47.58181125 9.8424935 -21.1268935  -47.5839335 9.005246 -21.525259  -47.2592485 9.6987065 -21.89593825  -49.874854 9.760158499999999 -23.47481825  -50.19741675 9.903945499999999 -22.7057735  -49.87273175 10.597406 -23.07645275  -49.550169 10.453619 -23.8454975  -48.24236625 10.422893 -23.0560575  -48.900799 11.84054 -24.586856  -47.91768125 11.1163535 -23.42673675  -49.22548399999999 11.1470795 -24.21617675  -49.54804675 11.2908665 -23.447132  -49.22336175 11.984327 -23.81781125  -44.968328 8.943794 -19.946379  -45.95144575 9.667980500000001 -21.10649825  -46.27613075 8.97452 -20.735819  -46.2740085 9.8117675 -20.3374535  -51.756707 9.930889000000001 -18.880442  -50.74565 10.7548815 -18.9482525  -50.97927475 10.115809 -18.6811585  -51.75773275 10.6570185 -18.4585015  -51.52308225 10.5699615 -19.147536  -51.21392525 10.202866 -17.992124  -51.2894575 11.209034 -19.41463  -50.2018425 10.300729 -18.481875  -50.9803005 10.8419385 -18.259218  -50.74667574999999 11.481011 -18.526312  -51.287406 9.756774999999999 -20.258511  -50.74462425 10.028752 -19.370193  -51.28843175 10.4829045 -19.8365705  -51.5220565 9.843831999999999 -19.5694765  -50.761299 8.8242455 -17.9767735  -50.48157075 9.56248725 -18.22932425  -50.71622125 9.64954425 -17.54028975  -51.4936535 9.46462425 -17.73957325  -51.259003 9.37756725 -18.42860775  -50.789702 9.203453249999999 -19.80667675  -51.0243525 9.290510250000001 -19.11764225  -50.24692025 9.47543025 -18.91835875  -50.5266485 8.7371885 -18.665808  -50.291998 8.650131500000001 -19.3548425  -49.116279 10.844683 -16.705239  -49.16135675 10.01938425 -17.14172275  -49.65906074999999 10.572706 -17.593557  -49.938789 9.83446425 -17.34100625  -49.7041385 9.74740725 -18.03004075  -49.98386675 9.0091655 -17.77749  -49.2064345 9.1940855 -17.5782065  -49.29659 7.543488 -18.451174  -49.25151225 8.36878675 -18.01469025  -49.74921625 8.9221085 -18.4665245  -50.0289445 8.18386675 -18.21397375  -49.794294 8.09680975 -18.90300825  -43.40740425 25.48068925 -24.48671425  -42.36964775 25.01769025 -23.3772495  -43.625931 25.747322 -23.83400675  -43.133119 26.19211 -24.2304735  -41.658309 25.1958455 -24.42642375  -42.91459225 25.92547725 -24.883181  -41.87683575 25.46247825 -23.77371625  -40.6205525 24.7328465 -23.316959  -42.6960655 25.6588445 -25.5358885  -43.90021625 25.03590125 -24.0902475  -43.6816895 24.7692685 -24.742955  -43.1888775 25.2140565 -25.13942175  -42.151121 24.7510575 -24.029957  -43.244636 24.236003 -26.04837  -41.7140675 24.217792 -25.335372  -42.97035075 24.94742375 -25.792129
[...]
<PointData  Scalars="p"> 
<DataArray  type="Float64"  Name="p"  format="ascii">9.9245754545501850e+00  9.9080917614307626e+00  9.9249121830602469e+00  9.9409235484233260e+00  9.9593425223538699e+00  9.9241336688867943e+00  9.9424673450377767e+00  9.9249679435012546e+00  9.9075871144959073e+00  9.8897809600499897e+00  1.0164579240102645e+01  1.0141277240696457e+01  1.0151107447337649e+01  1.0160275073522165e+01  1.0155770333442788e+01  1.0127011061973882e+01  1.0136305928549522e+01  1.0146307988391746e+01  1.0136690675789161e+01  1.0117158387561425e+01  1.0137345653554819e+01  1.0146162151350072e+01  1.0127711217589461e+01  1.0113713886392087e+01  1.0122568537937982e+01  1.0119060727930842e+01  1.0110386843275068e+01  1.0155743004502847e+01  1.0146624281483247e+01  1.0132261640373308e+01  1.0141784076695185e+01  1.0128385134872804e+01  1.0128172923247075e+01  1.0123108072415496e+01  1.0132330064239055e+01  1.0137378840763754e+01  1.0119438730229845e+01  1.0092055378561220e+01  1.0104166525580114e+01  1.0101180366434253e+01  1.0109562141912379e+01  1.0146079470621080e+01  1.0131076794309472e+01  1.0141262565928661e+01  1.0151050365115458e+01  1.0382512655764568e+01  1.0340625949351208e+01  1.0361047090272692e+01  1.0362410469776396e+01  1.0341574724190147e+01  1.0319767196893686e+01  1.0340395959472399e+01  1.0338201101140658e+01  1.0318090920493590e+01  1.0298157523348372e+01  1.0361021812817768e+01  1.0339225331450169e+01  1.0319030042623586e+01  1.0338764158186869e+01  1.0383507664423037e+01  1.0384499816569546e+01  1.0361223614497723e+01  1.0362924664344407e+01  1.0296728854246766e+01  1.0297673728461717e+01  1.0316749978099043e+01  1.0317681585052883e+01  1.0386350150147646e+01  1.0363546275831206e+01  1.0361297273252783e+01  1.0363387662197328e+01  1.0340036256208249e+01  1.0341587037107232e+01  1.0341482333921778e+01  1.0385441614805568e+01  1.0297594026972648e+01  1.0319613111397835e+01  1.0318992237619907e+01  1.0320005422232425e+01  1.0298151422345647e+01  1.0296519015384693e+01  1.0297426548186309e+01  1.0297047204641739e+01  1.0316941177546003e+01  1.0338810912759893e+01  1.0298069251579815e+01  1.0318247556250805e+01  1.0317980627087509e+01  1.0297374084419184e+01  1.0297882423260253e+01  1.0387947254597030e+01  1.0342433622726805e+01  1.0364647373428440e+01  1.0362374153834544e+01  1.0319518248338641e+01  1.0340642059902057e+01  1.0342120794821602e+01  1.0320641290299305e+01  1.0299402523118733e+01  1.0364709556239589e+01  1.0340528039954316e+01  1.0342243238045569e+01  1.0320701681546424e+01  1.0297563333553960e+01  1.0298976376496439e+01  1.0319977705684357e+01  1.0318926225960114e+01  1.0298592883657156e+01  1.0298704018759869e+01  1.0297547822347413e+01  1.0297355997148790e+01  1.0298871431399292e+01  1.0319807420554701e+01  1.0319148358095184e+01  1.0297875403214501e+01  1.0236766577158944e+01  1.0230736717156255e+01  1.0230529972232803e+01  1.0250606778214147e+01  1.0265372157417854e+01  1.0224300644214669e+01  1.0244575488008056e+01  1.0244464720245363e+01  1.0223762844349897e+01  1.0223974818722311e+01  1.0298020396596931e+01  1.0252904162049109e+01  1.0274882552494610e+01  1.0259347004028367e+01  1.0217394375804519e+01  1.0237811894642842e+01  1.0252578237324110e+01  1.0231345229334398e+01  1.0210440779499161e+01  1.0275050325281001e+01  1.0238271888078877e+01  1.0252850531112069e+01  1.0231464978980100e+01  1.0281111168583076e+01  1.0259345995773282e+01  1.0217402834893239e+01  1.0210092211144303e+01  1.0237826306740255e+01  1.0208277695408807e+01  1.0209852327517408e+01  1.0230531831241496e+01  1.0216495455006918e+01  1.0469936269929239e+01  1.0427068805416917e+01  1.0448245460761987e+01  1.0428460849076513e+01  1.0386351129821305e+01  1.0385980582337600e+01  1.0407108456428345e+01  1.0426346912124410e+01  1.0405890267315746e+01  1.0385515048818180e+01  1.0450538121943305e+01  1.0430415736169175e+01  1.0428411124557659e+01  1.0408277644982000e+01  1.0448150964002931e+01  1.0406596890371357e+01  1.0426134419759933e+01  1.0405782934467485e+01  1.0383385177545978e+01  1.0384910471007348e+01  1.0404382164795289e+01  1.0384982040685630e+01  1.0383784439835191e+01  1.0384847791835616e+01  1.0385936290458842e+01  1.0406495681545801e+01  1.0386697735921956e+01  1.0408057993461085e+01  1.0385941077983318e+01  1.0385115588792372e+01  1.0404707740860571e+01  1.0386972282655297e+01  1.0387359151421885e+01  1.0409572729751380e+01  1.0558968791056092e+01  1.0538974157452957e+01  1.0562549127955142e+01  1.0560660025013982e+01  1.0561351918590823e+01  1.0539483502190997e+01  1.0563636669166236e+01  1.0565886914478549e+01  1.0541216875104194e+01  1.0516907386399758e+01  1.0536612336933455e+01  1.0537537315338989e+01  1.0514124052400074e+01  1.0515690309041924e+01  1.0559584801829711e+01  1.0538956376203945e+01  1.0562491172798115e+01  1.0563617763640027e+01  1.0566262885157352e+01  1.0565461928049199e+01  1.0541023099785805e+01  1.0537078971985220e+01  1.0560972947203618e+01  1.0537690144235176e+01  1.0514419700444838e+01  1.0515691683944929e+01  1.0470437137293430e+01  1.0492745776678197e+01  1.0492060606361429e+01  1.0514532983847618e+01  1.0491931441736241e+01  1.0571614114302596e+01  1.0543096200241910e+01  1.0568491816760204e+01  1.0568920950940335e+01  1.0697861836170549e+01  1.0666334133760801e+01  1.0689303062654881e+01  1.0698790054343569e+01  1.0675125310511264e+01  1.0713631534943882e+01  1.0652722203443506e+01  1.0680426967448861e+01  1.0689697129172774e+01  1.0666106342820393e+01  1.0650382749188926e+01  1.0665406289295079e+01  1.0652061746485623e+01  1.0673677595433730e+01  1.0731508413359769e+01  1.0705860878651830e+01  1.0731009789573282e+01  1.0739881920013573e+01  1.0714472184383901e+01  1.0665079691220116e+01  1.0689516333184281e+01  1.0681092605077383e+01  1.0705670376353476e+01  1.0680298752986081e+01  1.0709880124076378e+01  1.0712914780350410e+01  1.0695260789711821e+01  1.0722002680144900e+01  1.0697021970767251e+01  1.0722881603596628e+01  1.0714252367433275e+01  1.0712063949653778e+01  1.0714001182200615e+01  1.0697251553681404e+01  1.0722267260648479e+01  1.0695930220699561e+01  1.0210687405093104e+01  1.0215395377765782e+01  1.0218606553889614e+01  1.0200378361580798e+01  1.0188858070299979e+01  1.0192604762528431e+01  1.0196849154040457e+01  1.0193134939735563e+01  1.0184767022752924e+01  1.0228853238335271e+01  1.0220616828715604e+01  1.0202590336209528e+01  1.0207260947226953e+01  1.0203832343004509e+01  1.0190503182233510e+01  1.0194472624733448e+01  1.0198958618279665e+01  1.0184879607534278e+01  1.0180708076412445e+01  1.0176455608848130e+01  1.0212222035009480e+01  1.0165105302116453e+01  1.0160681704211219e+01  1.0170758642997230e+01  1.0178613238875824e+01  1.0166330494604800e+01  1.0174440861791975e+01  1.0156059548398137e+01  1.0174905325377436e+01  1.0182451935046062e+01  1.0146135275573130e+01  1.0151222814562212e+01  1.0161693131669320e+01  1.0170072288234833e+01  1.0092804457182860e+01  1.0088219942035005e+01  1.0079134439299551e+01  1.0097217035375698e+01  1.0101862940962084e+01  1.0092405715958666e+01  1.0083174884453504e+01  1.0064771293111008e+01  1.0073849745886250e+01  1.0082776168526266e+01  1.0084261409105338e+01  1.0075431161703047e+01  1.0079047380440267e+01  1.0070246308875971e+01  1.0057551981777367e+01  1.0069722295459215e+01  1.0061198357583011e+01  1.0046230967616289e+01  1.0033637067657656e+01  1.0058705494864538e+01  1.0049642753694894e+01  1.0066464986307231e+01  1.0111746945917229e+01  1.0091511340135435e+01  1.0096737931036303e+01  1.0087368638195663e+01  1.0068355687523567e+01  1.0077562259114982e+01  1.0072044671072028e+01  1.0106698432270216e+01  1.0052846059536529e+01  1.0563107300559416e+01  1.0593909476109308e+01  1.0598696149219551e+01  1.0566391083209940e+01  1.0597969232519265e+01  1.0630681401645955e+01  1.0566359408389944e+01  1.0677483319571467e+01  1.0676423771690700e+01  1.0636726875511782e+01  1.0603149800694478e+01  1.0603138531025129e+01  1.0641150789980744e+01  1.0642432288874994e+01  1.0642511619276862e+01  1.0635865522229928e+01  1.0602053170142126e+01  1.0669941015215983e+01  1.0607743077182954e+01  1.0573313649197805e+01  1.0569772222926252e+01  1.0570038614567464e+01  1.0573898016607499e+01  1.0608088059159519e+01  1.0606299249305392e+01  1.0571773197509103e+01  1.0607316097652275e+01  1.0573400765234176e+01  1.0569273204917929e+01  1.0669583294759509e+01  1.0644602471513437e+01  1.0655881048674384e+01  1.0620483006023331e+01  1.0596924988207677e+01  1.0631406688320187e+01  1.0620154190136635e+01  1.0631621929980019e+01  1.0644510135527202e+01  1.0596877523485510e+01  1.0620038255898601e+01  1.0655448837764714e+01  1.0630679036816726e+01  1.0680738250782865e+01  1.0666064335818401e+01  1.0666828877579507e+01  1.0691480852261043e+01  1.0701934734015310e+01  1.0595872065590109e+01  1.0596011858235629e+01  1.0185654090790440e+01  1.0175756621486792e+01  1.0185342529210365e+01  1.0195482982539573e+01  1.0185081192463940e+01  1.0166055382921442e+01  1.0156376488259298e+01  1.0165803751290298e+01  1.0147340541074403e+01  1.0175055914259600e+01  1.0175069698659035e+01  1.0236736330704014e+01  1.0230367992194740e+01  1.0215360954232263e+01  1.0211438920493736e+01  1.0185116253066484e+01  1.0208294008179477e+01  1.0204130860035857e+01  1.0189206660678238e+01  1.0193097567931733e+01  1.0223481006890554e+01  1.0218446614856679e+01  1.0192829379978924e+01  1.0200090776748249e+01  1.0196686468394571e+01  1.0178326169132374e+01  1.0174533222708574e+01  1.0174275493600026e+01  1.0170446166341826e+01  1.0182041190680224e+01  1.0200766025129036e+01  1.0192614657902208e+01  1.0196337412505347e+01  1.0185406376858191e+01  1.0181257126564217e+01  1.0177233175839977e+01  1.0216120799072561e+01  1.0170028308109044e+01  1.0161834264913315e+01  1.0166161584708536e+01  9.8895016843191392e+00  9.8884415052093821e+00  9.8741951614384877e+00  9.9060679182618205e+00  9.8733569286461904e+00  9.8568411806605631e+00  9.8570156362608472e+00  9.9246040284965282e+00  9.8904680670739342e+00  9.8570968074070375e+00  1.0056625439987418e+01  1.0007675825509869e+01  1.0009886632326008e+01  1.0042631648213895e+01  1.0022208201872312e+01  1.0045835136967009e+01  9.9887650088472633e+00  1.0033708960888157e+01  1.0030998008171375e+01  1.0027992728905799e+01  9.9924735438640120e+00  1.0015392808050690e+01  9.9964402991740666e+00  1.0012624010257777e+01  1.0060059289693278e+01  1.0069160179411879e+01  1.0049283400182418e+01  1.0058659067414709e+01  1.0082592461275953e+01  1.0073208666185401e+01  1.0063711094764889e+01  1.0071435532214709e+01  1.0077452434037163e+01  1.0067524918803624e+01  1.0052890984738921e+01  1.0021618048652980e+01  9.9740231783286220e+00  9.9717305426120717e+00  9.9874218445232579e+00  1.0005420163806654e+01  1.0009748984596426e+01  9.9541240848729782e+00  1.0203143925632736e+01  1.0184834520827648e+01  1.0190002660230434e+01  1.0204684313591779e+01  1.0206286280347372e+01  1.0185835999031861e+01  1.0191233788295046e+01  1.0176163040862381e+01  1.0171042047632477e+01  1.0165744129390999e+01  1.0184061842957908e+01  1.0164903044283330e+01  1.0165310157234126e+01  1.0170390436230784e+01  1.0127880633266859e+01  1.0132153325986755e+01  1.0146114277409755e+01  1.0151106917904317e+01  1.0151200551581413e+01  1.0156233272117163e+01  1.0136647309398461e+01  1.0146054223985626e+01  1.0209753239283168e+01  1.0193795288846237e+01  1.0186888629597112e+01  1.0192538425028550e+01  1.0171740319912056e+01  1.0177102909842516e+01  1.0178130608391125e+01  1.0207964504385863e+01  1.0146372269801404e+01  1.0162435992776876e+01  1.0156567759089599e+01  1.0161645132572961e+01  1.0141373371370141e+01  9.8569380921653398e+00  9.8565210893070176e+00  9.8409799183191282e+00  9.8724392790309405e+00  9.8423713374340185e+00  9.8273771444411242e+00  9.8254533710474377e+00  9.8897590696116122e+00  9.8561162579571118e+00  9.8231955375297257e+00  1.0009357579527380e+01  9.9923111942390435e+00  1.0027546028064107e+01  1.0004918907030824e+01  9.9875997742985021e+00  9.9745652978904644e+00  1.0033974227936449e+01  9.9964569025413788e+00  9.9599867819629679e+00  1.0087729357472881e+01  1.0092194091979470e+01  1.0073669510059657e+01  1.0082419862054733e+01  1.0101595200489344e+01  1.0077693236577534e+01  1.0081763047819852e+01  1.0091508553067678e+01  1.0096849424865992e+01  1.0070791461508833e+01  1.0071878052541466e+01  1.0067896956218744e+01  1.0052577507482468e+01  1.0081324346989922e+01  1.0086884343798713e+01  1.0076816003836127e+01  1.0022583847667528e+01  9.9751400856229218e+00  9.9923152692753519e+00  1.0009963634185663e+01  9.9730985136887380e+00  9.9892399431261154e+00  1.0005920117962445e+01  9.9888326221870241e+00  9.9567411435749609e+00  9.9959184401929875e+00  9.8904982490249154e+00  9.8883709295955828e+00  9.8745009761184974e+00  9.9064692817233020e+00  9.8738769205982919e+00  9.8568542141259403e+00  9.9243616871829943e+00  9.8901257554920807e+00  9.8566589226067620e+00  9.9576466267842836e+00  9.9539481031529053e+00  9.9710112069888535e+00  9.9538220769903454e+00  9.9400247397517205e+00  9.9376892541550319e+00  9.9211335168250923e+00  9.9228443240044832e+00  1.0384258333978384e+01  1.0404322597256094e+01  1.0386199719456098e+01  1.0406590278264442e+01  1.0427021751884634e+01  1.0405961411400540e+01  1.0385135256104817e+01  1.0478313432112476e+01  1.0451580186778399e+01  1.0432557889068248e+01  1.0455098397463649e+01  1.0432604241536632e+01  1.0429946719419217e+01  1.0410835734031604e+01  1.0389330439585967e+01  1.0408554339734193e+01  1.0454738269102192e+01  1.0410505498820175e+01  1.0429441418225167e+01  1.0431915442288130e+01  1.0386630029760131e+01  1.0409313932208034e+01  1.0407560200395835e+01  1.0388482759924189e+01  1.0387372605163598e+01  1.0387853533813853e+01  1.0385921817211289e+01  1.0408541092671975e+01  1.0389138052454870e+01  1.0410322372173150e+01  1.0211730028042364e+01  1.0204542891273402e+01  1.0208451261671478e+01  1.0189493138784682e+01  1.0193245683989788e+01  1.0170857542663605e+01  1.0185562581916182e+01  1.0201037718823370e+01  1.0181660834625175e+01  1.0196861513008386e+01  1.0177498974714686e+01  1.0161994236590465e+01  1.0166448079811401e+01  1.0105660408304201e+01  1.0115313323746165e+01  1.0124530319275442e+01  1.0120692530406405e+01  1.0091986384786059e+01  1.0101346763765781e+01  1.0111165070078286e+01  1.0101490114469097e+01  1.0082309284605980e+01  1.0101047484823662e+01  1.0109905624179142e+01  1.0091573295934795e+01  1.0078157334152625e+01  1.0087067261658119e+01  1.0082878248536552e+01  1.0074161891939594e+01  1.0119316040114221e+01  1.0110166792518697e+01  1.0096592254617619e+01  1.0105945269435608e+01  1.0092048644763041e+01  1.0091691541740213e+01  1.0087391722112612e+01  1.0096450588189168e+01  1.0100893948370063e+01  1.0083069040673839e+01  1.0056142618556702e+01  1.0068769603433202e+01  1.0065121229982950e+01  1.0073534812054456e+01  1.0112324735286332e+01  1.0096781655263728e+01  1.0106771624797188e+01  1.0116639748048472e+01  1.0146016134632701e+01  1.0142738847042066e+01  1.0150964548024556e+01  1.0128762154717828e+01  1.0165224066580361e+01  1.0208304246457043e+01  1.0183255736849965e+01  1.0192642962474119e+01  1.0185916192680752e+01  1.0162360487765763e+01  1.0171058058188597e+01  1.0177265181132677e+01  1.0168244492545014e+01  1.0159297359006366e+01  1.0153188709099611e+01  1.0137822335710993e+01  1.0156172625134836e+01  1.0147800231964553e+01  1.0129533943312939e+01  1.0144568963079482e+01  1.0133204399369122e+01  1.0161854985733143e+01  1.0135827140571351e+01  1.0121083609348577e+01  1.0139278453260847e+01  1.0124993673469874e+01  1.0164259324505881e+01  1.0174270531849706e+01  1.0152256697952517e+01  1.0165031182848313e+01  1.0162065348490183e+01  1.0175170804391149e+01  1.0152489701116231e+01  1.0139647669793604e+01  1.0184928998489328e+01  1.0155541725305143e+01  1.0155604595028484e+01  1.0146512533600724e+01  1.0143175999946012e+01  1.0133924250944526e+01  1.0130251650123583e+01  1.0137322737745714e+01  1.0172485142940308e+01  1.0149199010385871e+01  1.0196245525506445e+01  1.0126367576817987e+01  1.0021398452582567e+01  1.0009382465136596e+01  9.9919532293686597e+00  1.0027374671683592e+01  1.0004909048676048e+01  9.9877987176206755e+00  9.9744023666875012e+00  1.0033820612709381e+01  9.9961078141666366e+00  9.9594532221604553e+00  9.9215650122705838e+00  9.9065338380042096e+00  9.9229688934586715e+00  9.9394023411579120e+00  9.9241740905976918e+00  9.9422100211006228e+00  9.9072661581604802e+00  9.8613980121738685e+00  9.8587376211630886e+00  9.8744727508303072e+00  9.8908574686563373e+00  9.9244378078789044e+00  9.8726098901648509e+00  9.8896102022347669e+00  9.9069503538360824e+00  9.8890414251054306e+00  9.8555819022759472e+00  1.0045601293612995e+01  1.0021482201581534e+01  1.0038982739144481e+01  9.9407262733909487e+00  9.9570732740527195e+00  9.9749051610630932e+00  9.9397705904613538e+00  9.9560767328606712e+00  9.9720104000841499e+00  9.9547687843533392e+00  9.9241052955342557e+00  9.9594071199199927e+00  9.9226283950588847e+00  9.9222708569498810e+00  9.9074738424812541e+00  9.9394305431599363e+00  9.9425898258644860e+00  1.0203643821829578e+01  1.0204708098805696e+01  1.0190324722011990e+01  1.0184817060819290e+01  1.0191080810368392e+01  1.0185349079556101e+01  1.0170846717459094e+01  1.0176304010810327e+01  1.0205833224511682e+01  1.0184498356811895e+01  1.0170662069633476e+01  1.0165251396680928e+01  1.0165287849355256e+01  1.0151329936836218e+01  1.0156324352209412e+01  1.0146390881792032e+01  1.0191891815129345e+01  1.0176750007600745e+01  1.0207018313153002e+01  1.0161582719030825e+01  1.0164070089260928e+01  1.0152158339301401e+01  1.0141048051353806e+01  1.0159974938732386e+01  1.0155676075164280e+01  1.0147744779600139e+01  1.0136282466079447e+01  1.0117203000944599e+01  1.0128466478491710e+01  1.0139656138704883e+01  1.0145723293027144e+01  1.0133340422782105e+01  1.0122407917465889e+01  1.0127342673346909e+01  1.0091818472167370e+01  1.0096594716935405e+01  1.0114819209820919e+01  1.0104071101490788e+01  1.0120503107792592e+01  1.0109501829924689e+01  1.0101663574570695e+01  1.0109260342162072e+01  1.0146408767903070e+01  1.0143093227390571e+01  1.0138126124350999e+01  1.0131251562152736e+01  1.0123317855333401e+01  1.0129842492937174e+01  1.0134880126917819e+01  1.0151155556114603e+01  1.0112610254001892e+01  1.0126502849078797e+01  1.0121391112923988e+01  1.0115227937963631e+01  1.0106990607393325e+01  1.0055917654659153e+01  1.0059575236267198e+01  1.0068667250949026e+01  1.0045567827423469e+01  1.0049256057971284e+01  1.0058652138966854e+01  1.0082331795032950e+01  1.0072945144784123e+01  1.0063444904415636e+01  1.0102458777947529e+01  1.0096932551843786e+01  1.0092231680182740e+01  1.0072631712383048e+01  1.0087240631535375e+01  1.0082491938123441e+01  1.0077631534457618e+01  1.0092382410219207e+01  1.0071605886952389e+01  1.0077416365442598e+01  1.0072596515886760e+01  1.0053109966371741e+01  1.0053305271826963e+01  1.0067479245183669e+01  1.0082182960870863e+01  1.0449212462061755e+01  1.0429242209073470e+01  1.0426626783169842e+01  1.0472017251824278e+01  1.0452137922781224e+01  1.0474114493986123e+01  1.0450427547287525e+01  1.0453732048781434e+01  1.0431530611170549e+01  1.0476201879124199e+01  1.0152806427756115e+01  1.0146744558336740e+01  1.0128350576287911e+01  1.0137979118588028e+01  1.0133978663945410e+01  1.0139862220069565e+01  1.0143697837484279e+01  1.0130421766524758e+01  1.0120705423918361e+01  1.0115888371342358e+01  1.0111416700574084e+01  1.0120823955275771e+01  1.0128996930237406e+01  1.0120208567585872e+01  1.0134423862884994e+01  1.0125007514112461e+01  1.0106615669505889e+01  1.0111133140402824e+01  1.0129084380332541e+01  1.0119735905211719e+01  1.0101934742697933e+01  1.0115448947629153e+01  1.0110257041388678e+01  1.0116417125211774e+01  1.0126205621741320e+01  9.8934675747429939e+00  9.8755174687260325e+00  9.8918472241315349e+00  9.9080720758672012e+00  9