<?xml version="1.0"?>
<VTKFile type="UnstructuredGrid"  version="0.1"  >
<UnstructuredGrid>
<Piece  NumberOfPoints="4369" NumberOfCells="20172">
<Points>
<DataArray  type="Float64"  NumberOfComponents="3"  format="ascii">-50.558795 4.0246905 -19.63952  -50.32491025 4.55702625 -20.083621  -50.66004700000001 5.022505 -19.35837675  -51.15851675 4.7932565 -20.1155075  -50.0910255 5.089362 -20.527722  -48.891582 3.55223 -19.575747  -49.49130375 4.320796000000001 -20.0517345  -49.7251885 3.78846025 -19.6076335  -49.8264405 4.78627475 -19.32649025  -45.989047 0.751562 -19.60721  -46.24998650000001 0.5668839999999999 -20.76761625  -45.47959425 0.7944107499999999 -20.691496  -46.5048285 0.96352225 -20.20916025  -45.734205 0.35492375 -20.165666  -45.479363 -0.04171450000000004 -20.724122  -45.99537575 1.006371 -21.29344625  -45.22475224999999 0.3977725 -21.249952  -47.02061 1.1754825 -20.8111105  -44.9701415 0.8372595 -21.775782  -45.73443625 1.191049 -20.13304  -45.4798255 1.630536 -20.65887  -45.2249835 1.23389775 -21.217326  -46.25021775 1.40300925 -20.73499025  -46.50459725 0.127397 -20.24178625  -46.24975525 -0.26924125 -20.80024225  -47.02037875000001 0.33935725 -20.8437365  -47.0201475 -0.496768 -20.8763625  -46.75943925 0.52403525 -19.68333025  -47.5298315 0.2965085 -19.7594505  -47.2749895 -0.10012975 -20.3179065  -47.27522075 0.7359955 -20.2852805  -49.070616 -0.158545 -19.911691  -48.04538175 -0.3276565 -20.39402675  -48.045613 0.50846875 -20.36140075  -48.30022375 0.06898174999999998 -19.83557075  -44.970604 2.50951 -21.71053  -44.97037275 1.67338475 -21.743156  -45.99560700000001 1.84249625 -21.26082025  -45.22521475000001 2.070023 -21.1847  -44.969679 -0.834991 -21.841034  -44.96991025 0.001134250000000003 -21.808408  -45.9951445 0.17024575 -21.32607225  -45.224521 -0.4383527500000001 -21.282578  -45.99491325 -0.6658795 -21.35869825  -52.226008 4.497151 -19.703293  -51.1584975 3.974279 -20.30250075  -51.39240150000001 3.51420725 -19.7839555  -51.39240150000001 4.26092075 -19.6714065  -50.324891 3.73804875 -20.27061425  -50.558795 3.277977 -19.752069  -50.558795 2.5312635 -19.864618  -50.324891 2.99133525 -20.38316325  -50.090987 3.451407 -20.9017085  -51.992104 4.210509249999999 -20.33438725  -51.7582 3.9238675 -20.9654815  -50.9245935 3.68763725 -20.933595  -51.1584975 3.2275655 -20.41504975  -52.226008 3.7504375 -19.815842  -52.226008 3.003724 -19.928391  -51.39240150000001 2.76749375 -19.8965045  -51.992104 3.46379575 -20.44693625  -52.226008 1.510297 -20.153489  -51.39240150000001 2.02078025 -20.0090535  -51.992104 1.97036875 -20.67203425  -52.226008 2.2570105 -20.04094  -51.1584975 2.480852 -20.52759875  -51.992104 2.71708225 -20.55948525  -51.7582 2.4304405 -21.1905795  -51.290392 3.350584 -22.22767  -50.6906895 3.4009955 -21.56468925  -50.9245935 2.94092375 -21.046144  -51.524296 3.63722575 -21.59657575  -51.524296 2.89051225 -21.70912475  -51.7582 3.177154 -21.0780305  -49.4912845 3.5018185 -20.23872775  -49.7251885 3.04174675 -19.7201825  -48.906338 4.070127 -26.974139  -47.243809 2.827321 -26.961246  -47.62586949999999 3.28532675 -26.26205375  -48.904435 3.0533655 -27.05388525  -48.902532 2.036604 -27.1336315  -47.241906 1.8105595 -27.04099225  -47.62396649999999 2.26856525 -26.3418  -46.345401 2.5005265 -25.5499685  -45.9633405 2.04252075 -26.24916075  -45.58128 1.584515 -26.948353  -48.5242775 3.61212125 -27.67333125  -48.5223745 2.59535975 -27.7530775  -48.142217 3.1541155 -28.3725235  -46.8617485 2.36931525 -27.66043825  -48.898726 0.003081 -27.293124  -47.240003 0.7937979999999999 -27.1207385  -47.6201605 0.23504225 -26.5012925  -47.6220635 1.25180375 -26.42154625  -46.343498 1.483765 -25.62971475  -46.341595 0.4670035 -25.709461  -45.9614375 1.02575925 -26.328907  -48.5185685 0.5618367499999999 -27.91257  -48.900629 1.0198425 -27.21337775  -48.5204715 1.57859825 -27.83282375  -48.138411 1.1205925 -28.532016  -46.85984550000001 1.35255375 -27.7401845  -47.378096 2.238104 -29.770908  -46.479688 1.9113095 -28.3596305  -47.7582535 1.67934825 -29.151462  -48.140314 2.137354 -28.45226975  -47.7601565 2.69610975 -29.07171575  -43.784464 0.930926 -24.125798  -44.682872 1.2577205 -25.5370755  -45.0630295 0.69896475 -24.9176295  -45.0649325 1.71572625 -24.83788325  -50.202917 1.853282 -24.743333  -49.87686925 1.39073175 -25.38078075  -48.274159 2.17690425 -25.14665075  -49.5527245 1.944943 -25.93848225  -47.94811125 1.714354 -25.7840985  -49.22667675 1.48239275 -26.57593  -49.5508215 0.9281815 -26.0182285  -48.59830375 1.622693 -24.58894925  -46.66954575 1.94631525 -24.992267  -48.272256 1.16014275 -25.226397  -46.9936905 1.392104 -24.4345655  -49.87877225 2.40749325 -25.3010345  -47.95001425 2.7311155 -25.70435225  -49.22857974999999 2.49915425 -26.49618375  -49.5546275 2.9617045 -25.858736  -49.23048274999999 3.51591575 -26.4164375  -47.94620825 0.6975924999999999 -25.86384475  -46.66764275 0.92955375 -25.07201325  -49.22477375 0.46563125 -26.65567625  -45.38907725 1.161515 -24.28018175  -47.27173175 3.8172615 -26.82418325  -47.621397 4.2052695 -26.16371325  -46.336456 4.340412000000001 -25.3532875  -45.98679075 3.952404 -26.0137575  -46.3409285 3.42046925 -25.451628  -45.99126325 3.03246125 -26.112098  -45.6371255 3.564396 -26.6742275  -43.775519 2.7708115 -23.929117  -44.70632225 3.16760375 -25.30167225  -45.06046 2.635669 -24.73954275  -45.0559875 3.55561175 -24.64120225  -43.43032625 1.46286075 -24.6879275  -43.7799915 1.85086875 -24.0274575  -44.71079475 2.247661 -25.40001275  -43.42585375 2.3828035 -24.589587  -43.0761885 1.9947955 -25.250057  -44.356657 2.77959575 -25.96214225  -47.578888 4.0198115 -22.9658555  -47.27788049999999 4.54510825 -23.471332  -47.57881325 4.841114750000001 -22.8066005  -48.88303 4.77496225 -23.59351825  -46.976873 5.070405 -23.9768085  -45.97366375 4.61126075 -22.68441425  -46.2745965 4.90726725 -22.01968275  -46.274746 3.26466075 -22.33819275  -44.6695965 3.03480675 -22.2160065  -44.97052925 3.33081325 -21.551275  -45.672731 4.315254250000001 -23.34914575  -46.957672 4.18011175 -24.1595715  -48.5628215 4.40996575 -24.28175775  -45.9545375 2.89966425 -23.02643225  -47.2586795 3.654815 -23.654095  -45.9737385 3.7899575 -22.84366925  -51.99277425 1.132865 -20.73328275  -52.226008 0.7551494999999999 -20.15348925  -51.43716000000001 1.0930865 -20.0930395  -50.648312 0.675876 -20.03259  -51.20392625 0.7156545000000001 -20.67283325  -51.43716000000001 0.337939 -20.09303975  -52.226008 1.999999999946489e-06 -20.1534895  -51.99277425 0.3777175 -20.733283  -51.7595405 0.755433 -21.3130765  -52.226008 -1.510293 -20.15349  -51.99277425 -1.1325775 -20.7332835  -51.43716000000001 -1.172356 -20.09304025  -51.43716000000001 -0.4172085 -20.09304  -51.20392625 -0.039493 -20.6728335  -50.648312 -0.07927149999999999 -20.03259025  -50.648312 -0.834419 -20.0325905  -51.20392625 -0.7946405000000001 -20.67283375  -51.7595405 -0.754862 -21.313077  -52.226008 -0.7551455 -20.15348975  -51.99277425 -0.37743 -20.73328325  -51.293073 0.000569 -22.472664  -50.73745875 -0.0392095 -21.83242075  -50.9706925 -0.416925 -21.25262725  -50.9706925 0.3382225 -21.252627  -50.41507825 0.298444 -20.61238375  -50.41507825 -0.4567035 -20.612384  -50.1818445 -0.078988 -21.1921775  -51.52630675 -0.3771465 -21.8928705  -51.7595405 0.0002854999999999732 -21.31307675  -51.52630675 0.378001 -21.89287025  -49.62623025 -0.1187665 -20.55193425  -49.859464 -0.496482 -19.97214075  -49.859464 0.2586655 -19.9721405  -46.46007 1.891216 -20.12517425  -46.20545925 2.330703 -20.65100425  -46.9758515 2.10317625 -20.7271245  -46.931093 3.03087 -20.6431385  -46.71468075 1.451729 -19.59934425  -47.4403145 2.151896 -19.5914785  -47.18570375 2.591383 -20.1173085  -47.23046225 1.66368925 -20.2012945  -47.485073 1.22420225 -19.6754645  -47.9113375 3.29155 -20.10944275  -47.956096 2.36385625 -20.19342875  -48.16594825 2.852063 -19.58361275  -48.9363405 2.62453625 -19.659733  -48.0008545 1.4361625 -20.27741475  -48.21070675 1.92436925 -19.66759875  -48.981099 1.6968425 -19.743719  -49.0258575 0.76914875 -19.827705  -48.25546525 0.9966755000000002 -19.75158475  -45.95084850000001 2.77019 -21.17683425  -51.203256 1.55315825 -20.61158475  -50.6035535 1.60356975 -19.948604  -50.414408 1.13594775 -20.55113525  -50.180504 1.5960195 -21.0696805  -50.3696495 2.0636415 -20.46714925  -50.969352 2.01323 -21.13013  -50.735448 2.47330175 -21.64867525  -50.1357455 2.52371325 -20.9856945  -49.536043 2.57412475 -20.32271375  -49.5808015 1.646431 -20.40669975  -49.769947 2.114053 -19.8041685  -49.8147055 1.18635925 -19.8881545  -49.62556 0.71873725 -20.49068575  -50.20118675 0.9253335 -24.746744  -48.8946075 1.18121375 -24.01775825  -48.56855975 0.7186635 -24.655206  -46.9342025 -0.415955 -24.567079  -48.5668295 -0.209285 -24.658617  -47.26025025 0.04659525 -23.92963125  -47.586298 0.5091455 -23.2921835  -48.89287725 0.2532652500000001 -24.02116925  -50.1994565 -0.002614999999999923 -24.750155  -48.242512 0.25611325 -25.29265375  -49.875139 0.46278325 -25.38419175  -50.195996 -1.858512 -24.756977  -48.88941675 -1.60263175 -24.02799125  -48.891147 -0.67468325 -24.02458025  -48.56509925 -1.1372335 -24.662028  -47.58456775 -0.4188029999999999 -23.2955945  -47.25852 -0.88135325 -23.93304225  -47.5828375 -1.3467515 -23.2990055  -50.19772625 -0.9305634999999999 -24.753566  -49.8716785 -1.39311375 -25.39101375  -48.24078175 -0.67183525 -25.29606475  -49.547361 -0.9277155 -26.0250505  -49.87340875 -0.46516525 -25.38760275  -49.54909125 0.0002330000000000385 -26.0216395  -49.2230435 -0.46231725 -26.65908725  -47.91646425 -0.206437 -25.9301015  -46.27625825 -1.09087125 -22.57001975  -46.2779885 -0.16292275 -22.56660875  -45.95194075 -0.6254730000000001 -23.2040565  -50.69070875 4.219973 -21.377696  -50.4148845 3.94587775 -22.063067  -50.09100625 4.2703845 -20.71471525  -49.815182 3.99628925 -21.40008625  -49.539377 4.5411715 -21.898464  -49.81520125 4.81526675 -21.213093  -51.29041125 4.1695615 -22.04067675  -51.014587 3.89546625 -22.72604775  -50.738782 4.440
[...]
<PointData  Scalars="p"> 
<DataArray  type="Float64"  Name="p"  format="ascii">1.0727544160459733e+01  1.0703025824158793e+01  1.0730738116703520e+01  1.0712810611562135e+01  1.0678938987630499e+01  1.0707000160164558e+01  1.0693028732980485e+01  1.0717377034195421e+01  1.0721059605548874e+01  1.0669481047917486e+01  1.0630880458825274e+01  1.0620466281111874e+01  1.0655101842729213e+01  1.0644471775819831e+01  1.0620040995638865e+01  1.0607375649138703e+01  1.0596899473433339e+01  1.0641094584982834e+01  1.0573937509878192e+01  1.0644533445819132e+01  1.0620115136929734e+01  1.0596929764263193e+01  1.0630666375084663e+01  1.0654679216850985e+01  1.0629943065244534e+01  1.0640987432417601e+01  1.0639677678515909e+01  1.0679931815376486e+01  1.0689982038088019e+01  1.0664579494663542e+01  1.0665374881036795e+01  1.0709229897322656e+01  1.0674240053884491e+01  1.0675366684551413e+01  1.0699756359020530e+01  1.0571784567570036e+01  1.0573423519039904e+01  1.0606609820488721e+01  1.0595999687327538e+01  1.0571678090857789e+01  1.0573369581390777e+01  1.0607032179416638e+01  1.0595912928667122e+01  1.0605588974278497e+01  1.0747370713019489e+01  1.0712548203083914e+01  1.0738896151486523e+01  1.0737500560256466e+01  1.0702418480918983e+01  1.0728608311347244e+01  1.0728376084635261e+01  1.0702816089721589e+01  1.0677704164910420e+01  1.0722536317836518e+01  1.0697961184578622e+01  1.0687973447009973e+01  1.0713269091578093e+01  1.0749009349046569e+01  1.0749516220079942e+01  1.0739092789130670e+01  1.0723422750931409e+01  1.0747527048574753e+01  1.0738166409724654e+01  1.0722589431669492e+01  1.0749036801647360e+01  1.0712953646868282e+01  1.0723434717846855e+01  1.0697991193317472e+01  1.0650627097072796e+01  1.0663883754341978e+01  1.0688168592974549e+01  1.0673868206822959e+01  1.0673866663384635e+01  1.0698301833901361e+01  1.0692035457379681e+01  1.0718003162829675e+01  1.0470756359510577e+01  1.0450148246490507e+01  1.0473348163693727e+01  1.0472135627279210e+01  1.0472538412370291e+01  1.0450315667395726e+01  1.0474067945541712e+01  1.0475595456540686e+01  1.0451310893089792e+01  1.0427361221494545e+01  1.0448783968570867e+01  1.0449389664887713e+01  1.0426611141508356e+01  1.0427207820680316e+01  1.0470268405528465e+01  1.0449478835350785e+01  1.0472277886097729e+01  1.0473710416552006e+01  1.0475546176346768e+01  1.0474354186781728e+01  1.0450722074557618e+01  1.0448439336385515e+01  1.0471892066159219e+01  1.0449270143782037e+01  1.0426381399237520e+01  1.0426894036099588e+01  1.0383518896327780e+01  1.0404585936504560e+01  1.0404583234386896e+01  1.0426725004262101e+01  1.0404710186550194e+01  1.0478668048871601e+01  1.0451968172354167e+01  1.0476481115092895e+01  1.0477405280219509e+01  1.0559837428394685e+01  1.0537201071556586e+01  1.0517963687064752e+01  1.0515390103411725e+01  1.0495718843020953e+01  1.0493417082634904e+01  1.0514445745303316e+01  1.0540659667546143e+01  1.0498057317455302e+01  1.0517577031887972e+01  1.0520754799190886e+01  1.0537341572118775e+01  1.0495516128631282e+01  1.0493540405711231e+01  1.0514701503517248e+01  1.0492360245895378e+01  1.0494766251969656e+01  1.0497404170102097e+01  1.0492000213498887e+01  1.0500119854319333e+01  1.0450985563395211e+01  1.0472381511723079e+01  1.0474043752168040e+01  1.0452130270281319e+01  1.0475289889902605e+01  1.0452875029363954e+01  1.0430462896350024e+01  1.0480187703091852e+01  1.0454310957477755e+01  1.0477847665969570e+01  1.0477282673255846e+01  1.0455145606592041e+01  1.0479962991318242e+01  1.0454370481443911e+01  1.0456092862157261e+01  1.0432333806192059e+01  1.0431633628005912e+01  1.0565937427229834e+01  1.0542547731580774e+01  1.0565948671322184e+01  1.0562427723895636e+01  1.0519509308241700e+01  1.0545588837039130e+01  1.0569597340893283e+01  1.0569075406818492e+01  1.0547536539393375e+01  1.0573436693131637e+01  1.0521932415351756e+01  1.0518859637259556e+01  1.0539005569723491e+01  1.0543347670643628e+01  1.0541393068703384e+01  1.0545338319245030e+01  1.0722694686613503e+01  1.0749129844662473e+01  1.0738477615344530e+01  1.0729142015568982e+01  1.0713414768663652e+01  1.0739605513519960e+01  1.0749653456680376e+01  1.0723589410918493e+01  1.0698171181326337e+01  1.0747683217064525e+01  1.0722786531795760e+01  1.0738414645340612e+01  1.0739591089055834e+01  1.0713905709643447e+01  1.0729716375892272e+01  1.0728989147504034e+01  1.0713375680412240e+01  1.0698215893075906e+01  1.0749191803574272e+01  1.0723617496044431e+01  1.0650914424653765e+01  1.0664603103581996e+01  1.0688735075825273e+01  1.0688766827671053e+01  1.0703803644326241e+01  1.0703729986172442e+01  1.0678898828009523e+01  1.0674133930846256e+01  1.0698517510654462e+01  1.0674109473322378e+01  1.0693738891425385e+01  1.0719274729692582e+01  1.0719414499251528e+01  1.0655067852956886e+01  1.0629995849763020e+01  1.0640756032866001e+01  1.0638907266092961e+01  1.0680659762529828e+01  1.0690522954102029e+01  1.0664451493275839e+01  1.0665730338648505e+01  1.0691195376499751e+01  1.0672824914310091e+01  1.0675266590209182e+01  1.0699323501386163e+01  1.0709992838669230e+01  1.0676126357291542e+01  1.0701185128607552e+01  1.0711352957940241e+01  1.0711119786889430e+01  1.0701359955994693e+01  1.0605310047514472e+01  1.0713938689344392e+01  1.0729426045140025e+01  1.0704911505158313e+01  1.0681075438312025e+01  1.0704613836563245e+01  1.0689796559343463e+01  1.0666046315855295e+01  1.0680125887409197e+01  1.0694724289981242e+01  1.0695866600701930e+01  1.0719933768060789e+01  1.0720401898771657e+01  1.0695498733816232e+01  1.0561249824315503e+01  1.0563387919783183e+01  1.0539495426066503e+01  1.0516921451457527e+01  1.0539653766122829e+01  1.0541571221381165e+01  1.0566601341365324e+01  1.0564117305665265e+01  1.0561655987700780e+01  1.0515909461052484e+01  1.0537852679311621e+01  1.0559304290934202e+01  1.0562242203963610e+01  1.0563730056628685e+01  1.0538773587646954e+01  1.0566526127670931e+01  1.0540938440064986e+01  1.0565264438794793e+01  1.0560993912959034e+01  1.0536834323543928e+01  1.0515570631773027e+01  1.0514202314561242e+01  1.0537725429924846e+01  1.0514587419303064e+01  1.0491867223248178e+01  1.0492680550913583e+01  1.0568394244076757e+01  1.0569389442020514e+01  1.0543160307003861e+01  1.0665327004636318e+01  1.0639632655184574e+01  1.0678935580170631e+01  1.0652585129749740e+01  1.0627838282523207e+01  1.0653177689915303e+01  1.0652197070286807e+01  1.0627319558720929e+01  1.0603923019176293e+01  1.0640426939145238e+01  1.0615673396896000e+01  1.0628116027295430e+01  1.0652723270663675e+01  1.0665611366478039e+01  1.0604222925126088e+01  1.0592051781906131e+01  1.0666043227901064e+01  1.0688673300763503e+01  1.0697931021215885e+01  1.0699907973276867e+01  1.0673120969139738e+01  1.0593860416813531e+01  1.0630082823466962e+01  1.0594889840930703e+01  1.0598222449610313e+01  1.0593308325901665e+01  1.0629577270049486e+01  1.0597281601530991e+01  1.0598375200993068e+01  1.0594729012181691e+01  1.0630491333773035e+01  1.0634559205015330e+01  1.0635136804087157e+01  1.0601322705024943e+01  1.0602122431476065e+01  1.0668133391336298e+01  1.0668460881363579e+01  1.0519337607224418e+01  1.0543509598669592e+01  1.0495505362061085e+01  1.0547806319187307e+01  1.0545981294494823e+01  1.0520659551017593e+01  1.0524608696658374e+01  1.0522888462898861e+01  1.0501702936110217e+01  1.0498433520931560e+01  1.0640556876500247e+01  1.0640743345813805e+01  1.0654317574581368e+01  1.0654067378911682e+01  1.0617628973528143e+01  1.0627724338925836e+01  1.0616776814443812e+01  1.0604429470974742e+01  1.0605376619794654e+01  1.0582926381827292e+01  1.0627839626299224e+01  1.0617152252549891e+01  1.0604699494351463e+01  1.0583061546541847e+01  1.0581872291514870e+01  1.0581491725282067e+01  1.0593576092414379e+01  1.0562674213486691e+01  1.0630368434631071e+01  1.0597971532047424e+01  1.0565608036199139e+01  1.0597377807346085e+01  1.0629353069824937e+01  1.0634064910160555e+01  1.0601247176912731e+01  1.0602181038596548e+01  1.0635475214875450e+01  1.0667103437141920e+01  1.0669022642089628e+01  1.0635476923071810e+01  1.0669476239089487e+01  1.0568631549425119e+01  1.0543038933356039e+01  1.0566587193550165e+01  1.0569905900624210e+01  1.0547888503150538e+01  1.0546230869331849e+01  1.0570165422935606e+01  1.0549106579292005e+01  1.0524654803338539e+01  1.0545500412566584e+01  1.0522662771119368e+01  1.0549080040891758e+01  1.0525348622030398e+01  1.0501708917967486e+01  1.0602688813323642e+01  1.0669547747226083e+01  1.0630204850008335e+01  1.0654284789922988e+01  1.0620517033105871e+01  1.0644552507206461e+01  1.0573977459280192e+01  1.0606579130084606e+01  1.0596961060014760e+01  1.0620122299186814e+01  1.0644578076097194e+01  1.0620140897146818e+01  1.0654161355112350e+01  1.0639683831713377e+01  1.0629547266552031e+01  1.0639273687017035e+01  1.0679251476447913e+01  1.0663570529121191e+01  1.0663784126298177e+01  1.0606483014811895e+01  1.0596001412578360e+01  1.0681088120607514e+01  1.0690813769357202e+01  1.0664983493356960e+01  1.0690794039718371e+01  1.0671111159333487e+01  1.0671654728631909e+01  1.0681295240599345e+01  1.0655398218675801e+01  1.0645686781706543e+01  1.0669392724057513e+01  1.0644438803139062e+01  1.0655082851150341e+01  1.0671093709249213e+01  1.0630147064019496e+01  1.0645677715038616e+01  1.0620031960634229e+01  1.0680532377217016e+01  1.0700381298549859e+01  1.0595912515662551e+01  1.0620695794985853e+01  1.0698923426546749e+01  1.0722704774855419e+01  1.0713803487193410e+01  1.0680652786073610e+01  1.0666522286218500e+01  1.0689569890613779e+01  1.0698065499781704e+01  1.0675304532722327e+01  1.0652891183110102e+01  1.0689783103072177e+01  1.0675383181063305e+01  1.0704629211641850e+01  1.0666137379508026e+01  1.0680384822906666e+01  1.0652433241533311e+01  1.0650614085364360e+01  1.0652275138826312e+01  1.0673899656412768e+01  1.0665738597061269e+01  1.0695163485963157e+01  1.0680735406480240e+01  1.0690075742750228e+01  1.0671222076791393e+01  1.0655140457459174e+01  1.0681200966197572e+01  1.0671789064607609e+01  1.0645782022896521e+01  1.0671227570552043e+01  1.0645780535379565e+01  1.0620787716295078e+01  1.0563703750422444e+01  1.0539187572168316e+01  1.0517202781293292e+01  1.0566364896079449e+01  1.0541248330491324e+01  1.0561079658644184e+01  1.0539616948044756e+01  1.0515967041236937e+01  1.0537812274597698e+01  1.0561306378854203e+01  1.0563618822251286e+01  1.0514677175243914e+01  1.0493061564811176e+01  1.0633565001042117e+01  1.0601593335815156e+01  1.0601243259871314e+01  1.0640181303420619e+01  1.0629257978150928e+01  1.0653374183440857e+01  1.0594278853777098e+01  1.0605061207762233e+01  1.0627626396548541e+01  1.0604566133990147e+01  1.0582821005716086e+01  1.0616742894742867e+01  1.0616865408605641e+01  1.0582505366157076e+01  1.0593781915496294e+01  1.0560469221595950e+01  1.0581819365803913e+01  1.0597730846212500e+01  1.0652267571187776e+01  1.0641627421123674e+01  1.0641707748318751e+01  1.0666716954655364e+01  1.0655350395053752e+01  1.0652886407820853e+01  1.0617544837469612e+01  1.0628508716493899e+01  1.0666228925807268e+01  1.0680590925427996e+01  1.0652421304912755e+01  1.0628581054877463e+01  1.0604917573399312e+01  1.0496292716927025e+01  1.0495485199274048e+01  1.0524685658941733e+01  1.0499076246720056e+01  1.0521112144066045e+01  1.0502295911160640e+01  1.0523996657508420e+01  1.0501982808352141e+01  1.0520516604745730e+01  1.0497975679006876e+01  1.0499129344533541e+01  1.0688903618737299e+01  1.0698702949946917e+01  1.0675166136596856e+01  1.0654887023075762e+01  1.0641421114075971e+01  1.0628450287880396e+01  1.0641233829203113e+01  1.0627487968141477e+01  1.0617069311672198e+01  1.0628375928666445e+01  1.0604273570801611e+01  1.0581412141367244e+01  1.0604651494732302e+01  1.0698852465639790e+01  1.0689898774526151e+01  1.0675348738312957e+01  1.0675265589895005e+01  1.0655058194432733e+01  1.0429401413448726e+01  1.0428545370158528e+01  1.0384414236402952e+01  1.0406335018211720e+01  1.0406224186301701e+01  1.0385329439831093e+01  1.0429798656886621e+01  1.0407887567401440e+01  1.0519529449207011e+01  1.0559277379087577e+01  1.0517594793482111e+01  1.0538753473506985e+01  1.0540219420868580e+01  1.0520399748064156e+01  1.0497812818421894e+01  1.0519257674791193e+01  1.0516998670974917e+01  1.0496121973187943e+01  1.0475451946696969e+01  1.0536806940073950e+01  1.0514197992480858e+01  1.0495212232070120e+01  1.0515597224665660e+01  1.0562170916428926e+01  1.0565192119835700e+01  1.0540943094152770e+01  1.0542656129164817e+01  1.0470308514623319e+01  1.0473102455547886e+01  1.0492752131497364e+01  1.0491884923607246e+01  1.0571663182993722e+01  1.0547730162701557e+01  1.0543214083248238e+01  1.0545204839200117e+01  1.0520973518470289e+01  1.0522361677939914e+01  1.0524449506557385e+01  1.0568335527949728e+01  1.0478366113174131e+01  1.0501456267761263e+01  1.0498983545542131e+01  1.0499811212321733e+01  1.0477249833850097e+01  1.0384594299508661e+01  1.0362809606918866e+01  1.0385942348286958e+01  1.0385834409962584e+01  1.0386118851783094e+01  1.0362853326993918e+01  1.0386503623881008e+01  1.0386859795392846e+01  1.0362687827805052e+01  1.0338845191451975e+01  1.0362672246530087e+01  1.0363143312735748e+01  1.0340486361608862e+01  1.0339917362359765e+01  1.0383732117711718e+01  1.0361915960991515e+01  1.0384505248841272e+01  1.0386023193938454e+01  1.0386636550289511e+01  1.0385312600005916e+01  1.0361956596459040e+01  1.0362064617079175e+01  1.0385400796701711e+01  1.0362933793218035e+01  1.0340091374183578e+01  1.0339501122561378e+01  1.0297238209847176e+01  1.0317352002739369e+01  1.0318370228647654e+01  1.0340451534867899e+01  1.0318560076020374e+01  1.0386895196206522e+01  1.0361936246244060e+01  1.0386116703167874e+01  1.0387223082603370e+01  1.0297857499231609e+01  1.0298868246089837e+01  1.0297895195417613e+01  1.0317736098436640e+01  1.0338990045052938e+01  1.0298982940017218e+01  1.0319070875538975e+01  1.0318266145894949e+01  1.0297766859284524e+01  1.0299315939022968e+01  1.0386533465933569e+01  1.0341892247788943e+01  1.0363913236526280e+01  1.0340749282389609e+01  1.0299553909678146e+01  1.0319855548395687e+01  1.0341968309349111e+01  1.0320708043051376e+01  1.0299679590567592e+01  1.0363594823673013e+01  1.0319774407680651e+01  1.0341363546649488e+01  1.0320409822727752e+01  1.0361831140168102e+01  1.0340163835673128e+01  1.0297148597989413e+01  1.0298917644672498e+01  1.0319324936307247e+01  1.0299007552672137e+01  1.0318731730906590e+01  1.0297518814344683e+01  1.0298303173322543e+01  1.0299497827694063e+01  1.0320245691536570e+01  1.0299161924648983e+01  1.0405421536318288e+01  1.0385099711956805e+01  1.0407297072756002e+01  1.0386698211866779e+01  1.0385617060418888e+01  1.0406646962905285e+01  1.0427924880709382e+01  1.0478532037726442e+01  1.0455024026341977e+01  1.0432390427870457e+01  1.0430324485473580e+01  1.0408656169916577e+01  1.0387827911947754e+01  1.0388800407998884e+01  1.0410381834024419e+01  1.0432194907026137e+01  1.0454924255709603e+01  1.0408776793756198e+01  1.0410288013439976e+01  1.0431998590610124e+01  1.0452212417777705e+01  1.0429919426763758e+01  1.0409351029424995e+01  1.0388200929941258e+01  1.0387453914035286e+01  1.0407885957778841e+01  1.0386103401627850e+01  1.0409627571626231e+01  1.0388379246622302e+01  1.0276909710844665e+01  1.0276579073460004e+01  1.0276666769257929e+01  1.0385249627808895e+01  1.0363472520515217e+01  1.0386268586410903e+01  1.0363767875719294e+01  1.0342439658932749e+01  1.0364237303891468e+01  1.0386307930418921e+01  1.0388373553039520e+01  1.0364066857918504e+01  1.0387312406552645e+01  1.0387534328922973e+01  1.0364729057105244e+01  1.0341928195761971e+01  1.0365221843622670e+01  1.0388789767394641e+01  1.0364045012349681e+01  1.0342220035264829e+01  1.0386524286369720e+01  1.0363795700948407e+01  1.0388188666396982e+01  1.0386780094049447e+01  1.0364467797407801e+01  1.0365129813082726e+01  1.0341744487062918e+01  1.0297898091887498e+01  1.0319933118095570e+01  1.0342589101794964e+01  1.0342417639519194e+01  1.0320021585970986e+01  1.0320633889901833e+01  1.0340299500544949e+01  1.0319859179441076e+01  1.0341129631223588e+01  1.0341076527398057e+01  1.0363085281620199e+01  1.0341901555499010e+01  1.0298823342456211e+01  1.0319370986400811e+01  1.0298459296257212e+01  1.0319712352737936e+01  1.0299012029354113e+01  1.0318789873075517e+01  1.0297942905308984e+01  1.0319961331015158e+01  1.0282059930107721e+01  1.0282720485240565e+01  1.0267235173354303e+01  1.0473002798051194e+01  1.0450505857584387e+01  1.0450214664956041e+01  1.0451485678909956e+01  1.0429439722566615e+01  1.0429974987382108e+01  1.0452510100544881e+01  1.0475361291548827e+01  1.0448711560773809e+01  1.0427667930999828e+01  1.0426942309976965e+01  1.0428471843921715e+01  1.0406650425709529e+01  1.0407674164866705e+01  1.0405427334489129e+01  1.0477249255685260e+01  1.0454091033744186e+01  1.0431237531476981e+01  1.0408690035057610e+01  1.0384980442195520e+01  1.0362320060418101e+01  1.0340916457949710e+01  1.0362368252899675e+01  1.0386048939976224e+01  1.0363837526488487e+01  1.0362046302681971e+01  1.0339876665358338e+01  1.0364128860580562e+01  1.0341926455431146e+01  1.0386606936051340e+01  1.0282820089348181e+01  1.0274003180105179e+01  1.0267437985637114e+01  1.0471011815847861e+01  1.0473524821148368e+01  1.0493425046649378e+01  1.0472733381183295e+01  1.0474537449164865e+01  1.0475510283777979e+01  1.0495943444869939e+01  1.0517629668581531e+01  1.0496477537214190e+01  1.0475543462428718e+01  1.0477593986712874e+01  1.0498582815152497e+01  1.0476412178015504e+01  1.0451145021133058e+01  1.0452381529274357e+01  1.0452851919739068e+01  1.0430475173044405e+01  1.0453671084218692e+01  1.0559997665899205e+01  1.0518213147662681e+01  1.0515568481044832e+01  1.0537317853806679e+01  1.0514538148069049e+01  1.0495912906422241e+01  1.0493568037306808e+01  1.0472751071387743e+01  1.0474348339631909e+01  1.0475972163189981e+01  1.0540816351152293e+01  1.0517678873405339e+01  1.0520897697909884e+01  1.0498321342966845e+01  1.0537551514234732e+01  1.0495851507503485e+01  1.0493781102008237e+01  1.0514969451697553e+01  1.0471143172211260e+01  1.0473762931043668e+01  1.0492697456894973e+01  1.0472436303701825e+01  1.0473855148124866e+01  1.0494819366121703e+01  1.0472287897770055e+01  1.0474350470205504e+01  1.0475732786445292e+01  1.0497470487661664e+01  1.0472016963391214e+01  1.0492061744101544e+01  1.0478701243717589e+01  1.0477662276517140e+01  1.0500224954080233e+01  1.0476487914808960e+01  1.0384422673971615e+01  1.0342033841722651e+01  1.0362303178593418e+01  1.0384935513734243e+01  1.0385479896748711e+01  1.0341380166012280e+01  1.0362098434181503e+01  1.0338964299342292e+01  1.0318968727705277e+01  1.0299136914238726e+01  1.0363980459577448e+01  1.0364010857712449e+01  1.0342752926696777e+01  1.0320847911411002e+01  1.0362692303724616e+01  1.0320268790629036e+01  1.0339849209318691e+01  1.0340664452078336e+01  1.0297722784764110e+01  1.0318894422700575e+01  1.0298744458883696e+01  1.0317664327368201e+01  1.0340641256075839e+01  1.0364016303412219e+01  1.0363762237026373e+01  1.0341685434897334e+01  1.0319644151019208e+01  1.0342258322842232e+01  1.0361830562426455e+01  1.0386016829064111e+01  1.0515197131541345e+01  1.0536977864170055e+01  1.0514565278618479e+01  1.0493553367049106e+01  1.0495650072763608e+01  1.0474056062909547e+01  1.0472682184473687e+01  1.0517444770764344e+01  1.0493369837835683e+01  1.0471981051084798e+01  1.0473932786115471e+01  1.0494933459915297e+01  1.0475566580636791e+01  1.0497322829500678e+01  1.0472339132821141e+01  1.0492438699185467e+01  1.0450230505254698e+01  1.0450624300389117e+01  1.0451466961221360e+01  1.0427804780219674e+01  1.0448695112509157e+01  1.0427607495536416e+01  1.0449584068750985e+01  1.0426878131613517e+01  1.0450018496430088e+01  1.0451040132075436e+01  1.0449216328404809e+01  1.0449759587588218e+01  1