<?xml version="1.0"?>
<VTKFile type="UnstructuredGrid"  version="0.1"  >
<UnstructuredGrid>
<Piece  NumberOfPoints="4490" NumberOfCells="21362">
<Points>
<DataArray  type="Float64"  NumberOfComponents="3"  format="ascii">-38.723505 24.417636 -20.106446  -38.72062575 23.58362925 -20.9797695  -39.220039 23.542942 -20.1117725  -40.06943525 23.80485375 -21.812543  -39.716573 22.668248 -20.117099  -40.5688485 23.7641665 -20.944546  -42.414192 23.110697 -21.782646  -41.0653825 22.8894725 -20.9498725  -40.0723145 24.6388605 -20.9392195  -41.42112400000001 24.860085 -21.771993  -52.226008 10.105003 -17.502373  -51.21392525 10.202866 -17.992124  -51.214951 10.9289955 -17.5701835  -51.44857575 10.289923 -17.3030895  -50.6711435 10.474843 -17.103806  -50.20286824999999 11.0268585 -18.0599345  -50.436493 10.387786 -17.7928405  -50.43751875 11.1139155 -17.3709  -50.203894 11.752988 -17.637994  -50.2018425 10.300729 -18.481875  -51.75773275 10.6570185 -18.4585015  -51.9913575 10.017946 -18.1914075  -51.756707 9.930889000000001 -18.880442  -51.99238325 10.7440755 -17.769467  -51.7587585 11.383148 -18.036561  -50.9803005 10.8419385 -18.259218  -50.98132625 11.568068 -17.8372775  -51.524108 11.296091 -18.7255955  -51.2894575 11.209034 -19.41463  -51.291509 12.661293 -18.570749  -50.74667574999999 11.481011 -18.526312  -50.7477015 12.2071405 -18.1043715  -51.52513374999999 12.0222205 -18.303655  -51.29048324999999 11.9351635 -18.9926895  -49.116279 10.844683 -16.705239  -49.65906074999999 10.572706 -17.593557  -49.6600865 11.2988355 -17.1716165  -49.89371125 10.659763 -16.9045225  -51.4936535 9.46462425 -17.73957325  -50.71622125 9.64954425 -17.54028975  -49.938789 9.83446425 -17.34100625  -43.262606 27.823613 -22.140313  -41.5762015 27.4817845 -22.00567025  -42.12783075 26.97211875 -21.63184625  -41.849053 26.786637 -22.35261975  -40.4355 25.749661 -22.5649265  -40.44142625 26.63029025 -21.4972035  -40.1626485 26.4448085 -22.217977  -40.71427775 25.93514275 -21.844153  -40.9930555 26.1206245 -21.1233795  -39.889797 27.139956 -21.8710275  -42.98382825 27.63813125 -22.8610865  -41.29742375 27.29630275 -22.72644375  -42.7050505 27.4526495 -23.58186  -42.71097675 28.33327875 -22.514137  -41.02457225 27.99145025 -22.37949425  -42.432199 28.147797 -23.2349105  -42.1593475 28.8429445 -22.887961  -40.7457945 27.8059685 -23.10026775  -41.018646 27.110821 -23.44721725  -41.601792 28.471981 -24.329508  -41.88056975 28.65746275 -23.6087345  -42.15342124999999 27.96231525 -23.955684  -41.056089 29.862276 -23.635609  -41.60771825 29.35261025 -23.261785  -41.3289405 29.1671285 -23.9825585  -40.472943 28.501116 -22.75331825  -39.306651 25.778796 -20.98873675  -39.85828025 25.26913025 -20.61491275  -39.5795025 25.0836485 -21.33568625  -38.682819 31.859567 -24.992149  -37.4453845 31.91896325 -23.3808895  -37.140917 31.69804125 -24.1552155  -37.75536 31.2159145 -23.8632045  -36.827901 30.572262 -22.73426  -36.5179255 31.27531075 -22.251945  -36.213458 31.05438875 -23.026271  -35.599015 31.5365155 -23.318282  -35.9034825 31.7574375 -22.543956  -36.20795 31.9783595 -21.76963  -38.3728435 32.56261575 -24.509834  -38.062868 33.2656645 -24.027519  -37.135409 32.622012 -22.8985745  -36.8309415 32.40109 -23.6729005  -37.442917 34.671762 -23.062889  -36.8254335 33.32506075 -22.4162595  -36.520966 33.10413875 -23.1905855  -34.979064 32.942613 -22.353652  -32.515211 31.213464 -21.644415  -34.3615805 31.59591175 -21.7070225  -34.057113 31.37498975 -22.4813485  -37.7528925 33.96871325 -23.545204  -34.972983 29.284957 -20.476371  -35.5904665 30.63165825 -21.1230005  -35.285999 30.41073625 -21.8973265  -33.744097 30.2492105 -21.060393  -35.900442 29.9286095 -21.6053155  -39.881075 32.591904 -21.98335  -38.0445125 32.28513175 -21.87649  -38.9719715 32.92878425 -23.0054345  -38.661996 33.631833 -22.5231195  -38.65405200000001 31.76516725 -21.60660525  -38.354488 31.582083 -22.358805  -37.127465 30.75534625 -21.98206025  -36.8174895 31.458395 -21.49974525  -37.427029 30.9384305 -21.2298605  -39.58151100000001 32.40881975 -22.73554975  -37.7449485 32.1020475 -22.62868975  -38.054924 31.39899875 -23.11100475  -39.281947 32.2257355 -23.4877495  -38.67240750000001 32.7457 -23.75763425  -38.982383 32.04265125 -24.23994925  -36.200006 30.11169375 -20.85311575  -37.445101 37.713897 -17.650109  -35.884486 36.045476 -19.49994625  -34.333742 35.7451655 -18.7405225  -36.532733 36.227205 -17.90599275  -36.796854 37.532168 -19.2440625  -34.981989 35.9268945 -17.146569  -36.148607 37.350439 -20.838016  -32.518877 34.139892 -16.643029  -34.069621 34.4402025 -17.40245275  -35.620365 34.740513 -18.1618765  -35.5603625 35.9546115 -20.296923  -33.7454975 34.349338 -18.1994295  -35.29624149999999 34.6496485 -18.95885325  -34.97211799999999 34.558784 -19.75583  -33.795629 31.767129 -18.673644  -34.38387349999999 33.1629565 -19.214737  -34.707997 33.253821 -18.41776025  -33.157253 32.9535105 -17.6583365  -38.696982 35.22397 -19.945315  -36.83454999999999 34.89137700000001 -19.8505725  -37.1586735 34.9822415 -19.05359575  -37.42279449999999 36.2872045 -20.3916655  -38.38401175 35.84645175 -19.3715135  -37.10982425 36.90968625000001 -19.817864  -36.84570325 35.60472325000001 -18.47979425  -38.0710415 36.46893350000001 -18.797712  -37.47164375 34.35975975 -19.62739725  -35.93333525 34.11803125 -18.735678  -35.60921175 34.02716675000001 -19.53265475  -36.2463055 33.4955495 -19.3094795  -37.75807125 37.09141525 -18.2239105  -35.02096725 32.63133925 -18.99156175  -38.32321925 24.35401675 -20.878929  -39.67202875 24.57524125 -21.7117025  -37.9229335 24.2903975 -21.651412  -40.92831200000001 25.304873 -22.16845975  -41.054696 33.049818 -18.92674  -40.4652675 33.593356 -19.18138375  -39.97716425 32.982939 -19.41772375  -40.17186225 33.4788775 -19.94553625  -39.2890285 33.907937 -20.9643325  -39.58243375 34.0224155 -20.20018  -39.0943305 33.4119985 -20.43652  -38.8996325 32.91606 -19.9087075  -39.38773575 33.526477 -19.6723675  -39.875839 34.136894 -19.4360275  -40.2705695 33.0974175 -18.65357125  -39.19303775 33.0305385 -19.144555  -39.681141 33.6409555 -18.908215  -39.486443 33.145017 -18.3804025  -40.76129075 32.9353395 -19.6908925  -39.878457 33.36439900000001 -20.70968875  -40.4678855 32.820861 -20.455045  -39.683759 32.8684605 -20.18187625  -39.39035375 32.753982 -20.94602875  -40.17448025 32.7063825 -21.2191975  -39.58505175000001 33.2499205 -21.47384125  -38.502284 34.7280315 -19.4175025  -39.2864105 34.680432 -19.69067125  -38.79830725 34.070015 -19.92701125  -38.60360925000001 33.5740765 -19.39919875  -39.0917125 34.1844935 -19.16285875  -38.307586 34.232093 -18.88969  -38.99300525 34.56595350000001 -20.45482375  -37.91819 33.240216 -17.834065  -38.112888 33.7361545 -18.3618775  -38.8970145 33.68855499999999 -18.63504625  -38.40891125 33.078138 -18.87138625  -38.7023165 33.1926165 -18.10723375  -39.54531900000001 32.0946325 -19.35315175  -38.76119250000001 32.142232 -19.079983  -38.46778725 32.0277535 -19.8441355  -38.03594200000001 31.139447 -19.7795635  -39.25191375 31.980154 -20.11730425  -39.83872425 32.209111 -18.58899925  -38.32934725 31.2539255 -19.015411  -39.05459775 32.2567105 -18.3158305  -38.6227525 31.368404 -18.2512585  -38.95850850000001 31.8656755 -20.88145675  -36.190809 29.68699 -17.575777  -36.62265425 30.5752965 -17.640349  -37.40678075 30.527697 -17.91351775  -37.1133755 30.4132185 -18.67767025  -37.54522075000001 31.301525 -18.74224225  -37.838626 31.4160035 -17.97808975  -37.05449950000001 31.463603 -17.704921  -37.48634475 32.3519095 -17.769493  -38.27047125 32.30431 -18.04266175  -37.97706600000001 32.1898315 -18.80681425  -38.3597135 32.38571025 -21.1559235  -36.838352 32.1795165 -20.328497  -37.86899225000001 32.54778825 -20.11860225  -38.06369025 33.04372675 -20.64641475  -37.767667 33.70174325 -20.136906  -37.572969 33.20580475 -19.6090935  -36.54232875 32.837533 -19.81898825  -37.27694575 33.86382125 -19.09958475  -34.82626925 32.13540075 -18.46374925  -35.3169905 31.97332275 -19.5010705  -36.34763075 32.3415945 -19.29117575  -36.0516075 32.999611 -18.781667  -35.8569095 32.5036725 -18.2538545  -36.88754975000001 32.87194425 -18.04395975  -37.08224775 33.36788275 -18.57177225  -37.378271 32.70986625 -19.081281  -37.437147 31.65948175 -20.05403025  -36.02385925 31.09533125 -17.91481575  -36.5145805 30.93325325 -18.952137  -36.94642575 31.82155975 -19.016709  -36.4557045 31.98363775 -17.97938775  -35.592014 30.20702475 -17.85024375  -35.9157855 31.453288 -19.22660375  -35.42506425 31.615366 -18.1892825  -34.993219 30.7270595 -18.1247105  -34.394424 31.24709425 -18.39917725  -35.89011975 30.28019875 -17.118867  -35.58943050000001 30.8734075 -16.661957  -36.32196500000001 31.16850525 -17.183439  -35.72317 31.68854 -17.45790575  -35.29132475 30.8002335 -17.39333375  -34.988052 32.059825 -15.748137  -34.9906355 31.39344225 -16.93642375  -35.42248075000001 32.28174875 -17.00099575  -34.3918405 31.913477 -17.2108905  -36.02127575 31.761714 -16.726529  -36.453121 32.6500205 -16.791101  -35.28874125 31.46661625 -16.205047  -39.834005 29.0663505 -23.20477275  -39.54239675 28.84372775 -23.9359525  -40.1068565 28.371203 -23.55172225  -39.157624 26.88013 -23.4678355  -38.8847725 27.5752775 -23.120886  -38.611921 28.270425 -22.7739365  -41.03733225 28.94450575 -24.71373825  -45.989047 14.137793 -13.60626  -46.5131255 14.03979925 -14.573069  -46.765918 13.38152025 -14.3975295  -46.765918 13.942189 -13.89786325  -47.542789 13.746585 -14.1894665  -47.2899965 13.84419525 -14.86467225  -47.542789 13.18591625 -14.68913275  -47.542789 12.6252475 -15.188799  -47.2899965 13.2835265 -15.3643385  -47.037204 13.9418055 -15.539878  -45.989047 13.57712425 -14.10592625  -45.989047 13.0164555 -14.6055925  -46.5131255 13.4791305 -15.07273525  -46.765918 12.8208515 -14.89719575  -45.7362545 14.23540325 -14.28146575  -46.260333 14.1374095 -15.24827475  -45.7362545 13.6747345 -14.781132  -45.483462 14.3330135 -14.9566715  -45.989047 11.895118 -15.604925  -46.5131255 12.91846175 -15.57240
[...]
<PointData  Vectors="u"> 
<DataArray  type="Float64"  Name="u"  NumberOfComponents="3" format="ascii">8.3399203264932652e+01 7.9520816506613897e+01 -6.5557211241768655e+01  8.2112744495607828e+01 7.6248599065686875e+01 -6.7816500970886281e+01  8.1623650058136803e+01 7.9570667504240205e+01 -6.9999540938393736e+01  8.0226702668673028e+01 7.3635583769199542e+01 -6.7524812933360863e+01  8.2655400154003956e+01 7.9742892093180643e+01 -7.2727117992890186e+01  8.0182774143263316e+01 7.7272586326348119e+01 -6.8250852867428506e+01  7.8162638166768559e+01 7.6113628409351151e+01 -7.1775743217506644e+01  8.0665076258680131e+01 7.8359361867746742e+01 -7.1935739746413915e+01  8.0170963885630414e+01 7.6106559620439029e+01 -6.4754856893715029e+01  7.8040701424020142e+01 7.3829692408204195e+01 -6.4687840665473971e+01  7.9184371367867072e+01 9.5745878883549508e+01 -1.6769307731179396e+02  7.7934534334139826e+01 9.1607605632280112e+01 -1.6285121977929461e+02  7.7441347037239424e+01 9.9062506612606740e+01 -1.5975842060559987e+02  7.8756827674861114e+01 9.7507735347073350e+01 -1.6697453308276474e+02  7.9004282710074520e+01 9.9610869433913365e+01 -1.6563085413717153e+02  7.7682245962717985e+01 9.4346185821499731e+01 -1.5481071215560132e+02  7.8236445126883112e+01 9.3751970820722420e+01 -1.6165805574177941e+02  7.8234805589918466e+01 1.0073865142627122e+02 -1.5823271048080295e+02  7.7613426841419695e+01 1.0036930021381042e+02 -1.5078092144336458e+02  7.7535735491416929e+01 8.7953614911472343e+01 -1.5841184532355825e+02  7.7289286876765971e+01 9.0993352943688535e+01 -1.5825000654814929e+02  7.7512385697915818e+01 8.8237064222390075e+01 -1.6534707268990419e+02  7.5368123881292760e+01 8.3220611817752555e+01 -1.6221338998414384e+02  7.7699879555527446e+01 9.8285565424461709e+01 -1.6019901704330672e+02  7.5416410527295071e+01 9.8605148897953100e+01 -1.5372839765018662e+02  7.6984311881233154e+01 9.2574402194367522e+01 -1.5640981559846824e+02  7.6294151333083974e+01 9.9021985052719629e+01 -1.5243431199724472e+02  7.4929979560597104e+01 9.1667116827086502e+01 -1.5160534882866699e+02  7.4666806712329077e+01 8.4920924104787673e+01 -1.4737678424304181e+02  7.4132647433673696e+01 9.4426086233351398e+01 -1.3851094597454406e+02  7.6146758284670980e+01 9.2678676064803540e+01 -1.4963225008896239e+02  7.5510304891870135e+01 9.7969908539159604e+01 -1.4558104168992622e+02  7.2360221008065878e+01 9.7896666319707933e+01 -1.4678768167148459e+02  7.4208576249800799e+01 9.0006941007271053e+01 -1.4340523463712665e+02  8.0053594835798606e+01 1.0527074976644134e+02 -1.6224927083819242e+02  7.8742126739183007e+01 9.5891272854507505e+01 -1.6038058599062572e+02  7.9086554603074433e+01 1.0289039276526178e+02 -1.5646376187277809e+02  7.9709090250633423e+01 1.0193230750706435e+02 -1.6444900536211588e+02  7.8469731438526068e+01 9.0580398115238509e+01 -1.7030431364090947e+02  7.8614265686711406e+01 9.2181467869672574e+01 -1.6859556240039296e+02  7.8905946936951736e+01 9.4016632279715381e+01 -1.6735026823253011e+02  7.2838566732274174e+01 6.9435005418242454e+01 -5.5304898052177180e+01  7.6097531990052289e+01 7.0113039326992450e+01 -5.6134934612698117e+01  7.5898618223220964e+01 7.2351597430124059e+01 -5.8028156856831920e+01  7.6029314685809680e+01 7.0062030494863009e+01 -5.8486176023384033e+01  7.8091622480658145e+01 6.9591817690527307e+01 -6.0993506762840063e+01  7.8079047041051169e+01 7.2045296648766012e+01 -5.8216638785896976e+01  7.8130800714353200e+01 6.9807429943136611e+01 -5.8664824990334964e+01  7.8050680565200011e+01 7.1979541601537889e+01 -6.0621369574303777e+01  7.8044282733760156e+01 7.4295824179154380e+01 -6.0094319118135445e+01  7.8177549581783254e+01 6.9838194032657285e+01 -5.6309752225655927e+01  7.4184104711128768e+01 6.6945091829467160e+01 -5.6159247388809675e+01  7.6069788413639387e+01 6.7986793732013311e+01 -5.6604585826424703e+01  7.4007827577356281e+01 6.5685255506291682e+01 -5.7211190928040700e+01  7.5588668485622790e+01 6.7864509185207993e+01 -5.3833630392107260e+01  7.6075404011617962e+01 6.8108759392513292e+01 -5.4446941476684920e+01  7.5017092971290609e+01 6.6345731242414431e+01 -5.4928660689880680e+01  7.4623488811058053e+01 6.6882348085889362e+01 -5.3043344063751960e+01  7.6069087685126291e+01 6.6067306855570493e+01 -5.4888464684450071e+01  7.6092669254662795e+01 6.5902673145985275e+01 -5.7020507995062225e+01  7.3947724211301576e+01 6.2845010288914061e+01 -5.2859892887243078e+01  7.4122426813365976e+01 6.5295545120774449e+01 -5.3512788627623372e+01  7.4460548106586899e+01 6.4678824317202029e+01 -5.5417248596803709e+01  7.3325783497177682e+01 6.1799063312927096e+01 -4.8978766498752151e+01  7.3206268141912190e+01 6.5599942313451535e+01 -5.1988253939570768e+01  7.3037592525450066e+01 6.2995681852828085e+01 -5.0905202260804174e+01  7.6040039581164834e+01 6.6072748255423079e+01 -5.2865054903870693e+01  8.0547179566021029e+01 7.3913227675434456e+01 -6.0168798405348468e+01  8.0243952372580679e+01 7.6293157398915554e+01 -6.2207902208471701e+01  8.0353866257576897e+01 7.3726754362729238e+01 -6.2803871629647801e+01  7.4103869620132230e+01 5.5291606587637588e+01 -4.3436556643197186e+01  7.6277687675302673e+01 5.8194523784590451e+01 -4.2624838610394924e+01  7.6351098935954568e+01 5.6459295556221271e+01 -4.3072572971117403e+01  7.6238269642982331e+01 5.8229419446371146e+01 -4.4449634932488387e+01  7.8446939803067963e+01 6.0768705588013972e+01 -4.5229050018163072e+01  7.8439725303075818e+01 6.0790544617312662e+01 -4.3288046328486786e+01  7.8462642440654335e+01 5.8993519888825524e+01 -4.3758632633370723e+01  7.8498368425308215e+01 5.7196839333978289e+01 -4.2305752027723642e+01  7.8466676592789867e+01 5.8921687147028067e+01 -4.1852518550395573e+01  7.8449331417095095e+01 6.0623760187834783e+01 -4.1280042356507067e+01  7.4567262832993435e+01 5.5448804194233709e+01 -4.1329717580902212e+01  7.4336765856016370e+01 5.6116617281584382e+01 -4.0063741423946205e+01  7.6251307653433159e+01 5.8168679540494303e+01 -4.0847114704727460e+01  7.6309227814427487e+01 5.6474653403526773e+01 -4.1246307729982526e+01  7.3986832154251772e+01 5.5122026504164985e+01 -3.6699040654912302e+01  7.6193319135501085e+01 5.7960018774805491e+01 -3.9069541312848955e+01  7.6300540847167895e+01 5.6419428190300493e+01 -3.9579413078481878e+01  7.8415824853900091e+01 5.7018748150639858e+01 -3.8684077376287931e+01  8.3472526863176171e+01 5.8617001330217519e+01 -4.0656696618365210e+01  8.0640344626375949e+01 5.9564745038369651e+01 -4.0967496267736600e+01  8.0616394080784218e+01 5.7883644078817078e+01 -4.1481015063094041e+01  7.3559282861975291e+01 5.5966265570037571e+01 -3.8636590650108239e+01  8.4113531983179669e+01 6.6603983711901833e+01 -4.6519821727650687e+01  8.0745877232858561e+01 6.3444774809920183e+01 -4.3791331917906163e+01  8.0733060406908621e+01 6.1622019133306701e+01 -4.4319000798526361e+01  8.2119607437906311e+01 6.1807368099212368e+01 -4.3162577296304747e+01  8.0707783170062939e+01 6.3700435606580847e+01 -4.5970547262641169e+01  7.3827068086511957e+01 6.1553855843103371e+01 -4.1440154055609597e+01  7.6367879907042166e+01 6.1578017420964343e+01 -4.1720046954063726e+01  7.5626153058876554e+01 5.8723366204543694e+01 -4.1269398351105494e+01  7.5047023964732347e+01 5.9619921320051539e+01 -3.9944514312330583e+01  7.6215723332412850e+01 6.3406254645858759e+01 -4.3172747844174019e+01  7.6280379324630431e+01 6.1667620696612190e+01 -4.3652508865817758e+01  7.8418777741189800e+01 6.2627924478244474e+01 -4.4806562886877316e+01  7.8408161147018490e+01 6.2544346832769982e+01 -4.2774628330737599e+01  7.8400034699732046e+01 6.4436078108685550e+01 -4.4221424427169623e+01  7.4137460357913767e+01 5.9444276529372473e+01 -4.2481859097018848e+01  7.6358321690130055e+01 5.9855321100927647e+01 -4.2219718057686634e+01  7.6232873886676501e+01 5.9939832764389720e+01 -4.4117816858349947e+01  7.4125347868435114e+01 5.8459667180820041e+01 -4.3423503730457668e+01  7.4555082367689195e+01 5.7517742153791431e+01 -4.1741024623896287e+01  7.3087283761720428e+01 5.6823096821158835e+01 -4.3649789301242173e+01  8.0641289029188925e+01 6.5709331154036136e+01 -4.5505957849258849e+01  7.3983043016287297e+01 6.0026283945879022e+01 -2.8130364273053047e+01  7.6319985334765519e+01 5.8828000791230210e+01 -3.1864120334164117e+01  7.8394430148363298e+01 5.9001905196197868e+01 -3.0944662895694229e+01  7.6320367055295264e+01 6.1792695921043844e+01 -3.0589440959530407e+01  7.3991634806157748e+01 5.7066298712063237e+01 -3.0097314665697986e+01  7.8422655027856706e+01 6.2230462391836554e+01 -2.9701725513390716e+01  7.3886345311776154e+01 5.4427488847664634e+01 -3.0397348723579555e+01  8.3392543305993129e+01 6.4088482452591080e+01 -3.1197370294993835e+01  8.0674731806071918e+01 6.3593541527713334e+01 -3.2177752293061793e+01  7.8474261924307740e+01 6.3097883976385496e+01 -3.2994461568409285e+01  7.6230261623628778e+01 5.7195643902562807e+01 -3.2293500012096835e+01  8.0710362570326097e+01 6.1924450523925181e+01 -3.2872854658768361e+01  7.8473290576337135e+01 6.1415279392072996e+01 -3.3628979654117366e+01  7.8451224517702443e+01 5.9755613027188332e+01 -3.4174980634490339e+01  8.4068126795955280e+01 6.5826191636398818e+01 -3.8607859991330344e+01  8.0732041787968669e+01 6.2506428006932097e+01 -3.6255996219167336e+01  8.0696905111535941e+01 6.4492656634519378e+01 -3.5714583776100007e+01  8.3139121403081063e+01 6.4390110033793789e+01 -3.5267181210161958e+01  7.4196949914335349e+01 6.0808789737249676e+01 -3.4618293265187958e+01  7.6336944226146286e+01 6.0829450988876765e+01 -3.4589112488265577e+01  7.6340521624644651e+01 6.2435688344164944e+01 -3.4029846815597111e+01  7.5000273109808887e+01 5.8883213740530579e+01 -3.2941975366114974e+01  7.4670273220055094e+01 6.0969151666808315e+01 -3.2522517637057106e+01  7.3964689292079569e+01 5.8876200326124703e+01 -3.1878324877174517e+01  7.6303531589795980e+01 6.2104793679040633e+01 -3.2243826094392119e+01  7.4387051593901631e+01 6.1473475968943760e+01 -3.1158897401117279e+01  7.6237593900953499e+01 6.2638207439742267e+01 -3.5775934481739640e+01  7.8449252887084697e+01 6.3429247885151405e+01 -3.4852356496414814e+01  7.8449650789637943e+01 6.1682549445942790e+01 -3.5439144516550478e+01  7.8429248559922314e+01 6.3631764340812524e+01 -3.6694809188859402e+01  7.3622376508511181e+01 6.0967546912906492e+01 -2.9821242211967355e+01  8.0683863580415689e+01 6.4722397204697188e+01 -3.7666453822967469e+01  8.4072298084714816e+01 7.6500431642776476e+01 -6.3525854538314960e+01  8.0249535764858408e+01 7.3194280466977503e+01 -6.4605187824893136e+01  8.2639022592226311e+01 7.3641743152534090e+01 -6.3581659391260104e+01  7.8040030872132149e+01 7.1692807736024591e+01 -6.2807419427720099e+01  7.3128835538070192e+01 6.8350429725611704e+01 -3.9201199103499675e+01  7.5705101942407467e+01 6.6617072857178229e+01 -3.7867426351149149e+01  7.5629309281063527e+01 6.7097253223527915e+01 -3.9620223574413295e+01  7.5561240190484554e+01 6.5556779945295247e+01 -3.9336783921426786e+01  7.4409399253591843e+01 6.2466912274015812e+01 -3.7976380292270662e+01  7.4136919262959026e+01 6.4898610631657135e+01 -3.8188243124150837e+01  7.4981684190331549e+01 6.4099830874922972e+01 -3.9007023794167850e+01  7.5947338050538804e+01 6.5690625564311276e+01 -3.9734991004207401e+01  7.5292832519587705e+01 6.5795051897167085e+01 -3.8581365373002264e+01  7.5016418573040198e+01 6.6251514549488576e+01 -3.7623792362736864e+01  7.5201021222606855e+01 6.8822979026488809e+01 -3.8703607180343930e+01  7.5975819812570705e+01 6.7373181086279999e+01 -3.9070549978719335e+01  7.5471883801909030e+01 6.7316988161718612e+01 -3.7781387181350595e+01  7.5882867960546889e+01 6.9110637048856603e+01 -3.8308131878648204e+01  7.4027051152319444e+01 6.6277201891806556e+01 -4.0415483996058512e+01  7.4465794857977599e+01 6.4322142546046280e+01 -3.9881728872193193e+01  7.3961562635379153e+01 6.5239696178117839e+01 -4.1568008740780058e+01  7.5262224501673856e+01 6.5607821966718518e+01 -4.0462271154893905e+01  7.4953176623923710e+01 6.3842767376806044e+01 -4.0842340253569866e+01  7.2933362384654103e+01 6.3603354124548780e+01 -4.2083579510997303e+01  7.4668373380301119e+01 6.1823454633129046e+01 -3.9470017120948377e+01  7.4391093477162599e+01 6.3216605957362020e+01 -3.5338081516664879e+01  7.2900823916197609e+01 6.4773461998777961e+01 -3.6524599213363565e+01  7.4612776232514207e+01 6.3990649677543573e+01 -3.7297267516223037e+01  7.5867842307376861e+01 6.5510121163909531e+01 -3.7813684875382705e+01  7.4996670409174257e+01 6.5482158352205985e+01 -3.6818752762060015e+01  7.5878596618799662e+01 6.5049231619083898e+01 -3.5959390805575040e+01  7.3554550913948802e+01 6.2139925878147146e+01 -3.6515537520816892e+01  7.7665152740765706e+01 6.8789043101883209e+01 -3.6930009518306726e+01  7.6750110197446290e+01 6.6908591627132665e+01 -3.6435771223989505e+01  7.5900421450803861e+01 6.7131699747069206e+01 -3.7156379292317943e+01  7.6819364918006215e+01 6.7298965776048036e+01 -3.8406919656195491e+01  7.6800155380972214e+01 6.8961484965468117e+01 -3.7627489654589859e+01  7.6274351011176350e+01 6.8874047599519329e+01 -4.1515366774232184e+01  7.7121188992472881e+01 6.8747449644693248e+01 -4.0838410165995271e+01  7.7134683955158081e+01 6.6911732017355789e+01 -4.1501454096958639e+01  7.8368431804586450e+01 6.8241959458107090e+01 -4.3351985248813087e+01  7.6218840951312558e+01 6.7031337883630897e+01 -4.2185959276369012e+01  7.6224537715136989e+01 7.0660066686981736e+01 -4.0808082031859840e+01  7.8348212015729786e+01 7.0172613560044823e+01 -4.2719129022342784e+01  7.7077698637466497e+01 7.0539073570666005e+01 -4.0092317603118111e+01  7.8306384938942543e+01 7.2110491186198686e+01 -4.1961111747672909e+01  7.6185076343672719e+01 6.5239735031485083e+01 -4.2722077077029311e+01  8.4259435139933458e+01 7.6259274691230388e+01 -4.5147998483893993e+01  8.2059026534566485e+01 7.3491709122188311e+01 -4.2393218865814816e+01  8.0561494178483812e+01 7.3717590789944538e+01 -4.3261156663515024e+01  8.0696211478760347e+01 7.1513618924921744e+01 -4.4007936383783253e+01  7.9356662677308492e+01 7.0104681792242559e+01 -4.1993447063060145e+01  7.9333580054137244e+01 7.2051185940577611e+01 -4.1229442032594577e+01  8.0364823532461443e+01 7.1888802827634279e+01 -4.0488759544177711e+01  7.8965070722262780e+01 7.0312542934514155e+01 -3.8639207204645928e+01  7.7999873459888846e+01 7.0480402305425798e+01 -3.9376201150158835e+01  7.8042882009794099e+01 6.8666412513218276e+01 -4.0127988413370559e+01  7.6299895619265712e+01 6.3248707302458207e+01 -4.1365445157726640e+01  7.8440775548415687e+01 6.4120128646756029e+01 -4.0509478428500245e+01  7.7168474762127801e+01 6.4956019643695896e+01 -4.0142169581169945e+01  7.6282220272605798e+01 6.3125632655905029e+01 -3.9439837174496638e+01  7.6234739487249982e+01 6.2977765152895429e+01 -3.7695577151827024e+01  7.7148819684692427e+01 6.4737427632380886e+01 -3.8216931232669637e+01  7.8463975057573279e+01 6.3927822790691032e+01 -3.8594870726782844e+01  7.7107327322833342e+01 6.4367619905100881e+01 -3.6306623430227923e+01  8.1592394275404104e+01 6.6984447172455191e+01 -3.8518085260197310e+01  8.0649376773445780e+01 6.5076437428534447e+01 -3.9695879328542183e+01  7.9372360594964690e+01 6.5785757607110241e+01 -3.9268595762003415e+01  7.9394385661017665e+01 6.5484505492118188e+01 -3.7256953865097323e+01  8.0325273176934175e+01 6.7362723915479535e+01 -3.7863632753917159e+01  7.8990800812936854e+01 6.8081664642907612e+01 -3.7399465755673177e+01  7.8061545570698613e+01 6.6219205577725930e+01 -3.6862586802634205e+01  7.8082703624570840e+01 6.6557620432533582e+01 -3.8840052070443662e+01  7.8419187818641873e+01 6.6203515501611022e+01 -4.1942589474214721e+01  8.1940979064760995e+01 7.0659874178460839e+01 -4.0796106168585453e+01  8.0818241038190124e+01 6.9197417032213934e+01 -4.2406074100537730e+01  7.9392246335105753e+01 6.7925444863749888e+01 -4.0614351867372200e+01  8.0327767556271539e+01 6.9599784232054503e+01 -3.9131339284018217e+01  8.4208676357679252e+01 7.1084209206223974e+01 -4.2020168246909584e+01  8.0833655428637883e+01 6.7119539186498955e+01 -4.1043561500797857e+01  8.1411151131617757e+01 6.8734096104343209e+01 -3.9644001352497142e+01  8.2213557805261743e+01 6.9688309052444666e+01 -4.1230524325677550e+01  8.1654254130808098e+01 6.9310449090619798e+01 -4.0722350047128607e+01  8.5034232830140311e+01 7.4235005851923447e+01 -4.2757210491640571e+01  8.3362109784178060e+01 7.3856532515770681e+01 -4.0877871038256266e+01  8.1944380162356907e+01 7.2937402375371917e+01 -4.0369159188384323e+01  8.1786190724514455e+01 7.0566513437730393e+01 -3.8877602803587592e+01  8.3083387498552511e+01 7.0792233856998919e+01 -4.0313034034477326e+01  8.4009209819353060e+01 7.3223844363694894e+01 -3.5816504542530026e+01  8.2635141027294793e+01 7.1569595054234938e+01 -3.8532940361609278e+01  8.1902988949550874e+01 7.0250863635848020e+01 -3.6936791170577422e+01  8.3324749093198733e+01 7.0111476100097505e+01 -3.6774363122326193e+01  8.1689036176291296e+01 7.2560767466065627e+01 -3.8332123271957180e+01  8.0324516349960987e+01 7.0897955582607679e+01 -3.6494530526971602e+01  8.2883135826018844e+01 7.4641340971180256e+01 -3.9246277305891290e+01  7.6218517673155716e+01 6.3769142349749117e+01 -5.0914818605261196e+01  7.6266378115911508e+01 6.1886826472394276e+01 -5.1330139956268695e+01  7.6084904915545934e+01 6.3747635663277002e+01 -5.2909481494296358e+01  7.8262652176381408e+01 6.4821054481661392e+01 -5.6603219571281628e+01  7.8312676073752343e+01 6.4910217191109354e+01 -5.4445733197209314e+01  7.8294629853872905e+01 6.4934471751268447e+01 -5.2322956570587905e+01  7.4409046218793236e+01 6.1012498225429859e+01 -5.2112297710906141e+01  8.6355133101857589e+01 1.3827459459120811e+02 -1.3324728878974216e+02  8.3030546196755338e+01 1.2921649946601832e+02 -1.3412368168547835e+02  8.3535371723564069e+01 1.3023331638441775e+02 -1.4080118495913737e+02  8.4406359091696345e+01 1.3607890263153317e+02 -1.3711009690191909e+02  8.3246860183198152e+01 1.3316979037866125e+02 -1.3954679229690575e+02  8.2386694489250075e+01 1.2689849085632476e+02 -1.3652775842626048e+02  8.2868452508745662e+01 1.2809352126764105e+02 -1.4267181546712035e+02  8.3298907807918880e+01 1.2429212220067090e+02 -1.4770215441876664e+02  8.2373997806457751e+01 1.2203467661765475e+02 -1.4090172500806329e+02  8.1810948103292844e+01 1.2063208209614825e+02 -1.3450441982634871e+02  8.4133716632962020e+01 1.3281125354834450e+02 -1.3799626942276305e+02  8.4079145715818015e+01 1.2710138502985133e+02 -1.4269187309741903e+02  8.2920681802044570e+01 1.2406562370456702e+02 -1.3874589872145958e+02  8.3634165867125304e+01 1.2539021336162847e+02 -1.4504858073698702e+02  8.4633149820766732e+01 1.3265814456973499e+02 -1.3000236605190523e+02  8.2152934793208118e+01 1.2300118616749377e+02 -1.3233124027115454e+02  8.2293019690836189e+01 1.2617598840485242e+02 -1.3584971306218654e+02  8.2507124216108551e+01 1.2618541199774376e+02 -1.2896610777482942e+02  8.6383191244882426e+01 1.1633053434139538e+02 -1.5281267902599282e+02  8.2988378228726162e+01 1.1893085347269522e+02 -1.4330360650692825e+02  8.4554892432069792e+01 1.1400053923679283e+02 -1.4685369561025772e+02  8.4198364343741432e+01 1.2179620725445835e+02 -1.4750185375784781e+02  8.2201363112069643e+01 1.1784480393025079e+02 -1.3694895817703662e+02  8.2273826942765012e+01 1.2046784481823731e+02 -1.4096510529421127e+02  8.2417719136491286e+01 1.1363637314252034e+02 -1.4024682414996568e+02  8.4397257047046040e+01 1.2118034079202334e+02 -1.5065674882654849e+02  8.0337693716586372e+01 1.2947037937057232e+02 -1.4335183153669405e+02  8.1436440488219887e+01 1.2483093939733168e+02 -1.3859359586233739e+02  8.2196705954200525e+01 1.2739109559485107e+02 -1.4550901440930068e+02  8.2397001912150927e+01 1.3096445752830334e+02 -1.4181550506210567e+02  8.4169068061678942e+01 1.1454020948595915e+02 -1.2864497556664708e+02  8.1320751483767978e+01 1.1716483409557181e+02 -1.3102068523960392e+02  8.0461215272796778e+01 1.1467996019347602e+02 -1.3630123398114009e+02  8.0382327838730546