<?xml version="1.0"?>
<VTKFile type="UnstructuredGrid"  version="0.1"  >
<UnstructuredGrid>
<Piece  NumberOfPoints="4676" NumberOfCells="20632">
<Points>
<DataArray  type="Float64"  NumberOfComponents="3"  format="ascii">21.019409 -12.395839 -50.403647  18.4542715 -11.3435115 -48.340681  19.8399995 -10.784317 -47.9374905  20.0587345 -11.2097065 -51.041677  19.09806 -10.023574 -51.679707  17.493597 -10.157379 -48.978711  18.879325 -9.5981845 -48.5755205  18.66059 -9.172795000000001 -45.471334  17.274862 -9.731989500000001 -45.8745245  15.889134 -10.291184 -46.277715  19.4009 -12.7212785 -50.938809  18.4402255 -11.535146 -51.576839  17.782391 -13.046718 -51.473971  16.8357625 -11.668951 -48.875843  19.3248395 -12.5817885 -47.7082585  17.63027 -12.767738 -45.01287  16.759702 -11.529461 -45.6452925  18.14543 -10.9702665 -45.242102  17.7063305 -12.907228 -48.2434205  17.5896915 -7.685940500000001 -46.1274435  19.2540205 -7.3973465 -45.5088585  19.5874595 -8.082771000000001 -48.5536055  19.847451 -5.621898 -45.546383  21.367203 -18.075025 -48.505011  18.80434 -17.178577 -49.83983600000001  18.9365515 -17.136928 -46.4175295  19.6788095 -18.4270675 -49.050136  20.4927335 -16.8265345 -49.29471100000001  19.618264 -15.578044 -50.084411  18.062082 -15.8884375 -47.2072295  17.990416 -18.77911 -49.595261  17.248158 -17.4889705 -46.9626545  16.5059 -16.198831 -44.330048  16.2570055 -13.377814 -48.622817  15.310377 -12.000047 -46.024689  16.180945 -13.238324 -45.3922665  14.73162 -13.70891 -45.771663  15.938776 -10.3620175 -49.4615005  15.360209 -12.127132 -49.226336  16.8854045 -11.7397845 -52.0596285  16.246549 -16.135207 -51.104841  13.9751495 -15.311082 -48.753446  14.879847 -16.602523 -48.0580615  15.4890845 -14.9220585 -48.438252  16.3762245 -16.167019 -47.7174445  17.174942 -14.643477 -47.928037  17.9324065 -15.8566255 -50.59462600000001  15.61876 -14.9538705 -45.0508555  14.626108 -13.5580655 -49.0841075  17.01447 -14.5909625 -51.289406  20.514329 -6.992747 -51.635877  19.8061945 -8.508160499999999 -51.657792  21.1481825 -8.224015 -51.176076  21.782036 -9.455283 -50.716275  20.221313 -9.314039000000001 -48.0938045  20.440048 -9.739428499999999 -51.197991  17.8084265 -8.111330000000001 -49.23163  18.110076 -18.707315 -46.130669  19.7984695 -18.3552725 -45.585544  20.5589605 -19.681153 -48.1938965  19.750718 -21.287281 -47.882782  18.990227 -19.9614005 -45.2744295  18.229736 -18.63552 -42.666077  17.367818 -17.4171755 -43.4980625  23.462347 -7.01119 -50.362302  20.8147435 -7.5385905 -48.131329  22.6221915 -8.2332365 -50.5392885  21.988338 -7.0019685 -50.9990895  18.624267 -14.172891 -47.5486405  17.068085 -14.4832845 -44.671459  16.5603545 -9.1475405 -49.477469  20.3188365 -13.9869415 -50.244029  18.7003275 -14.312381 -50.779191  16.2039635 -8.245134999999999 -46.530634  21.4007225 -10.925561 -50.559961  45.989047 -16.04909 -11.288677  46.511722 -17.01355225 -10.953346  45.73570375 -16.7307845 -11.25773825  45.989047 -16.43287 -10.64313175  45.989047 -16.81665 -9.997586500000001  46.25837875 -17.69524675 -10.92240725  46.511722 -17.39733225 -10.30780075  45.73570375 -17.1145645 -10.612193  45.4823605 -17.412479 -11.2267995  47.034397 -17.9780145 -10.618015  46.76506525 -16.33185775 -10.98428475  46.76506525 -16.71563775 -10.3387395  47.5410835 -16.6146255 -10.6798925  47.28774025 -17.29632 -10.64895375  45.989047 -17.58421 -8.706496  46.511722 -17.78111225 -9.662255500000001  46.76506525 -17.48319775 -9.047649  46.76506525 -17.09941775 -9.693194250000001  47.5410835 -16.9984055 -10.03434725  47.5410835 -17.3821855 -9.388802  47.28774025 -17.6801 -10.0034085  45.73570375 -17.8821245 -9.321102499999999  45.989047 -17.20043 -9.352041249999999  46.25837875 -18.07902675 -10.276862  45.73570375 -17.4983445 -9.96664775  45.4823605 -18.180039 -9.935708999999999  49.09312 -17.180161 -10.071108  48.0637585 -17.57908775 -10.3445615  48.31710175 -17.28117325 -9.729955  48.31710175 -16.89739325 -10.37550025  44.975674 -18.775868 -11.164922  46.0050355 -18.37694125 -10.8914685  45.22901725 -18.4779535 -10.5503155  45.4823605 -17.796259 -10.58125425  45.22901725 -18.0941735 -11.19586075  43.240023 -30.84224 -17.749834  41.71549175 -30.63700775 -17.013729  42.68926875 -31.394734 -18.05259675  42.96218875 -31.4498235 -17.2975795  42.6843545 -32.057407 -16.845325  41.1647375 -31.18950175 -17.31649175  41.4376575 -31.24459125 -16.5614745  42.4114345 -32.0023175 -17.60034225  42.1385145 -31.947228 -18.3553595  40.1909605 -30.4317755 -16.277624  42.128686 -33.272574 -15.940816  40.61398325 -31.74199575 -17.6192545  39.08945199999999 -31.5367635 -16.8831495  41.15982325 -31.85217475 -16.10922  41.582846 -33.162395 -17.4508505  39.635292 -31.6469425 -15.373115  41.037006 -33.052216 -18.960885  37.141898 -30.021311 -14.805414  38.66642925 -30.22654325 -15.541519  42.13360025 -32.609901 -17.14808775  41.58776025 -32.49972200000001 -18.65812225  42.40652025 -32.6649905 -16.3930705  51.289975 -19.468302 -11.239381  50.46727825 -19.15805825 -11.63275775  50.74028925 -18.42428975 -11.64158875  50.74076125 -18.89626675 -10.94731275  50.1915475 -18.3242315 -10.6552445  49.9180645 -18.586023 -11.3406895  50.1910755 -17.8522545 -11.3495205  50.19060349999999 -17.3802775 -12.0437965  49.9175925 -18.114046 -12.0349655  49.6445815 -18.8478145 -12.0261345  51.289503 -18.996325 -11.933657  50.46680625 -18.68608125 -12.32703375  50.73981724999999 -17.95231275 -12.33586475  51.28903099999999 -18.524348 -12.627933  51.016492 -19.7300935 -11.924826  50.19379525 -19.41984975 -12.31820275  51.01602 -19.2581165 -12.619102  50.743009 -19.991885 -12.610271  51.288087 -17.580394 -14.016485  51.28855899999999 -18.052371 -13.322209  50.46633425 -18.21410425 -13.02130975  50.73934525 -17.48033575 -13.03014075  51.01507599999999 -18.3141625 -14.007654  50.19332325 -18.94787275 -13.01247875  51.015548 -18.7861395 -13.313378  50.742065 -19.047931 -13.998823  50.196043 -20.515468 -13.981161  50.469054 -19.7816995 -13.989992  50.742537 -19.519908 -13.304547  49.92031225 -19.68164125 -13.00364775  50.469526 -20.2536765 -13.295716  49.36885075 -18.01398775 -11.04862125  49.64186175 -17.28021925 -11.05745225  49.64233375 -17.75219625 -10.36317625  52.226008 -18.208582 -8.768789999999999  51.20875775 -18.59738025 -9.03449775  51.75900075 -19.20064775 -9.246650499999999  51.99199975000001 -18.523512 -9.386437749999999  51.7579915 -18.838442 -10.0040855  50.9747495 -18.91231025 -9.6521455  51.5249925 -19.51557775 -9.864298249999999  51.2919935 -20.1927135 -9.724511  50.7417505 -19.589446 -9.51235825  50.1915075 -18.9861785 -9.300205500000001  50.74074125 -19.22724025 -10.26979325  51.29098425 -19.83050775 -10.481946  51.52398325 -19.153372 -10.62173325  52.226008 -16.698287 -11.384698  51.44290525 -16.38787875 -11.67777875  51.442786 -16.8187555 -11.0563005  51.20830574999999 -17.03928225 -11.71424725  50.65968325 -16.50834725 -11.34938125  50.425203 -16.728874 -12.007328  50.42508375 -17.15975075 -11.38584975  50.659564 -16.939224 -10.727903  50.6598025 -16.0774705 -11.9708595  51.99152775 -16.91881375 -12.04264475  50.9738255 -17.259809 -12.372194  51.7570475 -17.1393405 -12.7005915  51.208425 -16.6084055 -12.3357255  50.97394475 -16.82893225 -12.99367225  50.7394645 -17.049459 -13.651619  50.19072275 -16.94940075 -12.66527475  50.190842 -16.518524 -13.286753  50.42532225 -16.29799725 -12.62880625  51.52256724999999 -17.35986725 -13.35853825  49.87646125 -16.62881575 -11.02098375  49.09323925 -16.74928425 -10.69258625  49.8765805 -16.197939 -11.642462  49.641981 -16.8493425 -11.6789305  49.0933585 -16.3184075 -11.3140645  49.876342 -17.0596925 -10.3995055  49.093597 -15.456654 -12.557021  49.87669975 -15.76706225 -12.26394025  49.09347775000001 -15.88753075 -11.93554275  49.64210025 -16.41846575 -12.30040875  49.6422195 -15.987589 -12.921887  50.4664535 -17.7832275 -13.642788  49.91771175 -17.68316925 -12.65644375  49.64470075 -18.41693775 -12.64761275  49.64482 -17.986061 -13.269091  49.91783100000001 -17.2522925 -13.277922  50.1934425 -18.516996 -13.633957  49.92043150000001 -19.2507645 -13.625126  49.36897 -17.583111 -11.6700995  49.36908925 -17.15223425 -12.29157775  49.3692085 -16.7213575 -12.913056  48.915042 -23.613886 -13.627291  47.282046 -23.410677 -13.60968375  47.6310045 -23.12158075 -12.9004525  47.62996275 -22.65078125 -13.69589825  46.34488349999999 -21.6876765 -13.7645055  45.99696675 -22.44757225 -13.678291  46.34592524999999 -22.158476 -12.96905975  46.346967 -22.6292755 -12.173614  45.9980085 -22.91837175 -12.88284525  45.64905 -23.207468 -13.5920765  43.774725 -19.761467 -13.90172  43.42680824999999 -20.52136275 -13.8155055  43.77576675 -20.2322665 -13.10627425  44.7118875 -21.4844675 -13.74689825  44.36397075 -22.24436325 -13.66068375  44.71292925 -21.955267 -12.9514525  43.7768085 -20.703066 -12.3108285  43.42785 -20.99216225 -13.02005975  43.0788915 -21.2812585 -13.729291  45.05980425 -20.72457175 -13.83311275  45.060846 -21.19537125 -13.037667  43.778892 -21.644665 -10.719937  43.4299335 -21.93376125 -11.42916825  43.77785025 -21.1738655 -11.51538275  44.713971 -22.4260665 -12.15600675  44.3650125 -22.71516275 -12.865238  43.42889175 -21.46296175 -12.224614  43.080975 -22.2228575 -12.1383995  45.06188775 -21.66617075 -12.24222125  45.0629295 -22.13697025 -11.4467755  42.383058 -22.80105 -13.556862  42.7320165 -22.51195375 -12.84763075  43.07993325 -21.752058 -12.93384525  44.016054 -23.004259 -13.57446925  42.73097475 -22.04115425 -13.6430765  50.189166 -22.382709 -10.773207  48.5865975 -22.198198 -10.7598895  48.885793 -21.48099875 -10.87113575  48.567262 -21.788793 -11.58465675  46.945358 -21.194877 -12.3961065  46.9646935 -21.604282 -11.57133925  47.263889 -20.88708275 -11.6825855  47.58242 -20.5792885 -10.9690645  47.2832245 -21.29648775 -10.85781825  46.984029 -22.013687 -10.746572  49.870635 -22.69050325 -11.486728  48.248731 -22.09658725 -12.29817775  49.552104 -22.9982975 -12.200249  48.2680665 -22.50599225 -11.4734105  47.9495355 -22.8137865 -1
[...]
<PointData  Vectors="u"> 
<DataArray  type="Float64"  Name="u"  NumberOfComponents="3" format="ascii">7.3619492967897202e+01 7.1068574483446731e+00 2.9136254338183441e+01  7.8295971701186957e+01 6.6539115177192185e+00 2.8404144810058948e+01  7.8341338385022041e+01 6.9529085182007178e+00 3.0891707046148046e+01  7.4249487167304835e+01 5.7948077416808736e+00 2.7623740527223454e+01  7.3946207982503878e+01 5.1148591962999275e+00 2.6246340832617577e+01  7.8333448269340138e+01 5.5699623568137566e+00 2.6839876705463247e+01  7.8283856131015966e+01 5.7680730177888213e+00 2.9258347388587023e+01  8.3207947156157303e+01 6.5407863309047096e+00 3.2684955440882177e+01  8.2518838971927323e+01 5.9472904640681623e+00 2.9743163434786400e+01  8.3141968025185406e+01 6.1967301235923617e+00 2.7292374135797210e+01  7.4694411824867601e+01 6.7487619292762755e+00 2.6787932006766720e+01  7.4039829885706538e+01 5.9409258342417415e+00 2.5135775536106699e+01  7.3879532412503437e+01 6.1035733046489415e+00 2.3979674855253617e+01  7.8357307478425156e+01 6.1247110885764418e+00 2.5524165808227817e+01  7.8349958425048726e+01 7.8198079852719875e+00 2.9646698762678415e+01  8.3236781150711266e+01 8.5944397043930767e+00 3.0102557476653928e+01  8.3166602962154187e+01 7.6630457836682302e+00 2.8555997788919175e+01  8.2706675623410476e+01 7.4626377639600276e+00 3.1446766187479760e+01  7.8334175164351791e+01 7.1668705406960296e+00 2.6869462552713841e+01  8.2788446359979787e+01 5.5781308031317343e+00 3.0546390329312018e+01  8.3250412149154101e+01 5.2323951846425789e+00 3.4045089735029229e+01  7.8318980936739209e+01 5.0957788363998819e+00 3.0738548604856931e+01  8.3355772009817031e+01 4.3721943841069564e+00 3.5588280909764663e+01  7.3826677646102326e+01 1.0599306960475204e+01 2.8610537467438704e+01  7.4386994350074474e+01 8.8204566521229353e+00 2.5001726670175987e+01  7.8338338406435270e+01 1.0353578992097443e+01 2.8146213955431779e+01  7.4690382355495231e+01 9.9407928715785125e+00 2.6272049220540779e+01  7.4002559306257680e+01 8.8881017720263689e+00 2.7734664342522031e+01  7.3769700314944885e+01 8.1736496289603977e+00 2.6386734241104030e+01  7.8377740763977457e+01 9.0561313177243665e+00 2.6966805046191382e+01  7.3850944970110078e+01 8.7894601778495716e+00 2.3375695963550665e+01  7.8368019420277832e+01 9.3857440622016508e+00 2.5272421535653969e+01  8.3261724185904697e+01 9.9964329580943296e+00 2.7361853349896680e+01  7.8377882168091944e+01 6.6812929686286182e+00 2.4320186428034958e+01  8.2827705030394355e+01 6.6244218482141308e+00 2.5841646226921032e+01  8.2577279293097632e+01 7.5740889033421279e+00 2.7297759566544315e+01  8.3259471413273047e+01 7.4050237436952200e+00 2.4530908330225962e+01  7.8310740775963978e+01 5.0792927306905007e+00 2.4195176944479734e+01  7.8334494062313496e+01 5.6928152083986667e+00 2.3091700242583691e+01  7.4342395924258213e+01 4.9340116945128116e+00 2.2949200870554019e+01  7.3864740382138478e+01 6.7196440237588133e+00 2.1375904190853817e+01  7.8375834340439511e+01 6.4316994407336363e+00 2.0476335136894232e+01  7.8382745567406459e+01 7.4963510550097903e+00 2.1733965128218738e+01  7.8372836991408050e+01 7.0480258019650650e+00 2.2903277570146912e+01  7.8363965385571277e+01 8.1849617720265559e+00 2.4151091355907692e+01  7.8332315954157679e+01 7.8267315560393262e+00 2.5707177802322985e+01  7.4801106920366678e+01 7.5603606168635800e+00 2.4143621006450470e+01  8.3237537605700140e+01 9.0862414430141722e+00 2.5941980377288008e+01  7.8343847499086351e+01 6.0022773331060835e+00 2.1717465182192139e+01  7.4097079753984815e+01 6.7771491313876737e+00 2.2705074848026563e+01  7.3856534499813804e+01 3.8499367908982416e+00 2.8811218164396575e+01  7.4352541003526042e+01 4.7095877226474769e+00 2.7607518958776861e+01  7.3825869806510042e+01 4.4919355266147756e+00 2.9767927610031496e+01  7.3766495977711131e+01 5.7851168236566473e+00 3.0757226915098130e+01  7.8320009024979129e+01 6.1435706782101800e+00 3.1805754252918842e+01  7.4309363320681399e+01 5.5767656038155815e+00 2.8636989243957842e+01  7.8298937058350688e+01 4.5450954055822557e+00 2.7583685744729671e+01  7.8359944664837670e+01 1.0720718458462423e+01 2.6435014609146894e+01  7.8369495598305591e+01 1.1804931858184050e+01 2.9295649712343764e+01  7.4403947366566399e+01 1.1346712295476019e+01 2.7129161976366277e+01  7.3889700020356273e+01 1.1266998742678057e+01 2.5482113124799920e+01  7.8360863310357701e+01 1.2113426632622110e+01 2.7497695657155575e+01  8.3246945106216415e+01 1.3067323970724443e+01 2.9924681223980063e+01  8.3250917874084180e+01 1.1938766351999213e+01 2.8578939090261628e+01  7.3816940936278215e+01 4.8818165255502874e+00 3.3849674243091457e+01  7.8331688789763348e+01 5.1616754163305183e+00 3.3076567394498944e+01  7.3871562659834510e+01 5.7960360988460682e+00 3.2299775622288259e+01  7.4521617867919161e+01 4.3823017063075893e+00 3.1599614943567790e+01  7.8363218706074790e+01 8.3935999409799127e+00 2.8224290336321285e+01  8.2852824398291588e+01 9.1196068245852864e+00 2.8672067458921561e+01  7.8310512988860509e+01 4.7279894267120604e+00 2.5448298598575711e+01  7.4168788129801641e+01 7.9878458094488529e+00 2.7882993182371667e+01  7.4154994130920471e+01 6.6880616821385894e+00 2.5330184497280126e+01  8.2467718258964169e+01 4.9871589511628995e+00 2.8206742960835559e+01  7.3500410833127773e+01 6.7844976142284406e+00 2.9994424533499647e+01  7.0755051566271831e+01 2.8294879054278886e+02 2.0039062701090833e+02  6.3003121016281703e+01 2.0989664372177438e+02 1.3079349879438777e+02  1.2231170432971768e+02 2.1426877253954621e+02 1.3697253179691251e+02  7.4317609981020510e+01 3.0045105336922518e+02 1.7503575601632642e+02  6.8668110643260889e+01 2.7648922697401559e+02 1.6377519984876204e+02  7.5485941372825877e+01 1.8920095764101782e+02 1.1474655504247602e+02  6.6146822329937208e+01 2.1323071295325650e+02 1.2661645476988549e+02  1.1864898387468746e+02 2.1087406953604307e+02 1.3580782440794908e+02  1.0011230776846138e+02 1.7744235109701020e+02 1.1760155199448900e+02  5.7880391716147479e+01 1.8330661080958356e+02 1.0844202395695778e+02  1.8821284334012642e+01 2.2473548964744370e+02 1.4194255549767124e+02  2.8306440506960097e+01 2.2178803506731091e+02 1.3144715600752366e+02  2.2668541860025602e+01 1.9715295547629094e+02 1.2635360185757440e+02  4.3494220429891449e+01 1.9309425944011249e+02 1.1637148548661690e+02  7.0817425515403599e+01 3.1001080488743423e+02 1.5483122111341893e+02  6.2745032386330195e+01 2.1579647023803935e+02 1.2145981622529229e+02  2.2686843564332033e+01 2.3815206577795681e+02 1.3192182494560990e+02  2.4769345563486887e+01 2.1778379311065839e+02 1.3104126302040294e+02  2.8713552952570886e+01 1.9797533244832346e+02 1.1651081972938063e+02  2.2817037711745307e+01 2.0792066933696398e+02 1.1332274219700740e+02  4.2406970781364059e+01 1.9618476485844110e+02 1.1319851019711002e+02  1.2328139658833099e+02 2.2206867212693575e+02 1.2212328570317995e+02  7.3150048966598561e+01 2.9823407864945557e+02 1.7940820246038501e+02  7.6232138568518920e+01 1.9046975719079964e+02 1.1067937461276097e+02  1.1837030952024287e+02 2.1999167458267550e+02 1.2112160119353216e+02  1.0031866345927340e+02 1.8799207241926661e+02 1.0015449116619813e+02  2.0195700852459300e+01 1.7086329651060709e+02 1.0053761557522375e+02  3.5501728869589037e+01 1.7831584328526205e+02 1.0509136043924134e+02  2.2098298446045323e+01 1.9308508539617588e+02 1.0254814876115462e+02  2.0395314550230957e+01 1.7976514939367300e+02 1.1791489388864150e+02  9.0178251180654470e+01 1.6138981942445531e+02 9.6017951690253881e+01  7.9649863819323173e+01 1.7576788611553468e+02 1.0410252788965468e+02  9.0008846569484390e+01 1.7450792972369800e+02 9.7606345315648710e+01  9.8559091146419078e+01 1.8337072248490293e+02 1.0890125422014032e+02  8.9867774190255602e+01 1.6917901426144695e+02 1.0684911160562071e+02  7.2829306387182640e+01 7.6838254667536106e+01 4.4266994716315928e+01  7.6008908511683714e+01 7.9096172121807768e+01 4.3950180812035711e+01  7.5581304201342604e+01 7.5004969479630745e+01 4.3061144263069437e+01  7.4079783606483701e+01 7.6815441638309807e+01 4.1657090675989629e+01  7.4009840453847502e+01 7.7391433992927745e+01 4.0118218086922887e+01  7.6104980958029259e+01 7.6766179667027558e+01 4.2660077391634658e+01  7.6069721759243208e+01 7.8833768966750029e+01 4.1781574163750271e+01  7.4924184677359492e+01 7.5459327487804288e+01 4.1290331012613784e+01  7.4657902230431844e+01 7.4078560984917104e+01 4.2590574093162708e+01  7.8188130770261651e+01 8.0493697305934120e+01 4.3075870492798913e+01  7.4008121897072229e+01 7.5787018018177449e+01 3.6332848655206853e+01  7.6028980863986476e+01 7.4607375104343504e+01 4.1441881557179975e+01  7.8222357446209585e+01 7.5558240780300366e+01 4.0455427975685396e+01  7.6068701857933561e+01 7.8340234661023004e+01 3.9655924552215168e+01  7.4067803421285106e+01 7.2423653582074394e+01 3.8727746731334236e+01  7.8137495768909659e+01 7.9484702427055765e+01 3.8625164370727987e+01  7.3948929615231677e+01 6.8838540566918510e+01 3.9599025115668368e+01  8.3216284052570032e+01 8.3425926009944675e+01 4.1169841730444752e+01  8.0258895324782841e+01 8.1816591992638209e+01 4.2187750166077535e+01  7.4201381980588465e+01 7.5219866832728101e+01 3.9661516841360907e+01  7.3129723705300904e+01 7.2060220566528258e+01 4.1360133391396744e+01  7.3108437142316717e+01 7.6959297298253702e+01 3.8208134438561515e+01  6.1982335963846687e+01 1.2076383536719429e+02 6.9608804369597479e+01  5.7183426137304686e+01 1.2725896474539461e+02 7.7333340161219340e+01  5.0883091723281119e+01 1.2526536390542311e+02 7.9057920589001910e+01  5.1678825395929373e+01 1.2758977456604418e+02 7.3817653147978149e+01  3.9823993227465870e+01 1.3708016241955033e+02 7.9613415302738360e+01  4.8603682945121186e+01 1.3569091644945769e+02 8.3153278553893216e+01  3.9483714962595066e+01 1.3436585100981884e+02 8.5582610125072264e+01  3.8768142276335446e+01 1.3048540324936636e+02 9.0424659535434714e+01  4.8462176822962519e+01 1.3253576441779759e+02 8.8038067016608068e+01  5.5603985963161300e+01 1.3332511162629157e+02 8.5296354420109495e+01  6.1585310506952773e+01 1.1943661502013951e+02 7.4892975283530944e+01  5.7291770256608302e+01 1.2458446924286393e+02 8.2324393407054743e+01  5.1363657292404923e+01 1.2181479416452115e+02 8.3814664157167925e+01  6.2375319775936134e+01 1.1654047801206846e+02 7.9453620394394193e+01  6.7014862191582452e+01 1.2120684706455218e+02 7.5112930867505213e+01  6.2100652184944991e+01 1.2620511796974921e+02 8.0516121623132960e+01  6.6076520585926076e+01 1.2056822151103241e+02 7.9485732293860494e+01  6.8054885960378144e+01 1.2145549822367971e+02 7.8545845069424374e+01  6.1995569672085445e+01 1.0907142740759809e+02 8.6853597637983228e+01  6.1701235640837979e+01 1.1339649834217614e+02 8.4051615576510116e+01  5.7035978878428629e+01 1.2145535674120468e+02 8.6841287464086335e+01  5.0653821765506741e+01 1.1823449055876502e+02 8.8365331134762485e+01  6.6535289349841108e+01 1.1415495263570975e+02 8.5437814650559062e+01  6.1546313188995860e+01 1.2372157017886890e+02 8.5084286587850286e+01  6.5718844722205475e+01 1.1796153824092967e+02 8.3460944483382633e+01  6.7685645123782606e+01 1.1754546985642820e+02 8.4469122909024875e+01  6.9644789073969420e+01 1.1581630020653311e+02 7.9098571518134477e+01  6.6339051573080141e+01 1.1868158782187756e+02 8.2061772890549534e+01  6.6876417361108992e+01 1.2039326582565160e+02 8.2135034759493195e+01  6.4526724135555554e+01 1.2419311472225596e+02 8.2436787699868333e+01  6.7044076761168270e+01 1.1937236954326279e+02 8.0352070243051898e+01  3.9809979008095077e+01 1.4694509293567600e+02 9.0981692276462340e+01  2.9996297601466509e+01 1.4516172561022702e+02 9.6680800514940842e+01  2.7304594952130831e+01 1.5343629655353149e+02 8.8900482054668501e+01  1.4083842584799333e+01 8.5695097350035709e+01 4.0082663972870542e+01  3.3508543331609125e+01 1.2639414855490655e+02 6.1810347825114718e+01  5.4567348643959896e+01 1.1859622729603929e+02 5.7115829921445489e+01  4.9355785833117579e+01 1.0005959363067871e+02 5.4529210985310300e+01  5.6542182329694811e+01 1.1365472871010972e+02 6.1243460831580165e+01  4.2848520531144622e+01 1.2767985967644545e+02 6.5949792454530552e+01  5.8187295498448357e+01 1.2365217610227263e+02 6.2865366958391881e+01  6.2344505855114953e+01 1.2701546013372430e+02 6.1166404846961399e+01  5.1300853339668635e+01 1.3294082629676143e+02 6.4628574698894525e+01  3.8701819990215611e+01 1.4257728425367890e+02 6.9812633241036110e+01  5.0600681878807670e+01 1.3009573368345804e+02 6.9687966154596467e+01  6.1690440531741551e+01 1.2459043912530502e+02 6.6188523148287018e+01  5.6132781157043070e+01 1.1896383158841878e+02 6.8430245692379501e+01  1.4105084733331541e+01 7.8763414445538672e+01 5.2504509656999829e+01  1.2909772022678910e+01 1.0754744266672373e+02 8.0667965326876200e+01  1.3326767299350276e+01 1.1532615189871724e+02 7.3265740396338558e+01  3.3572075135217659e+01 1.1569191500564905e+02 8.0108528711825585e+01  1.8010887741275734e+01 1.2977344968160205e+02 8.9207813513407515e+01  2.9010685843692869e+01 1.2949984265492904e+02 9.1573559777078714e+01  2.9128808632071038e+01 1.3200892138221408e+02 8.8736397377960046e+01  1.5698887623899180e+01 1.3641067469191088e+02 8.6434714123421159e+01  1.5717725115904765e+01 1.2805784731110066e+02 9.5238932340596691e+01  4.9419165089265704e+01 9.0886449255710943e+01 6.8829553488912168e+01  4.2916468561921327e+01 1.1640474562843498e+02 8.4328984001399675e+01  5.6582375897362752e+01 1.0332126780905725e+02 7.7550176398006897e+01  3.1925656958879205e+01 1.1163688576975373e+02 8.3496369300871805e+01  4.4074170818420015e+01 1.1524017846400841e+02 8.9175904346753754e+01  5.1721771523084570e+01 1.1514879848123640e+02 9.2098619667989510e+01  3.9061568676109140e+01 1.2727054901568101e+02 9.5154556326645690e+01  3.9868212954197588e+01 1.2359411823421792e+02 9.9300045563525245e+01  2.8288093279396087e+01 1.2539602763667021e+02 9.8506272386556489e+01  5.6162516645336964e+01 1.0750344457312286e+02 8.5448768589081212e+01  2.0481698096997118e+01 1.4084799572983971e+02 9.9011123198668528e+01  1.7342951460700377e+01 1.5385252288213212e+02 1.0887287412142213e+02  1.9973681337317082e+01 1.4222928141461588e+02 9.7500925755878185e+01  2.9475918119346350e+01 1.4173463657419492e+02 9.7923135274570981e+01  1.7681445669223027e+01 1.5386136477073546e+02 1.0647154657444212e+02  1.6282870535387527e+01 1.5356806210275860e+02 9.8362937195833140e+01  2.0193167833542979e+01 1.5369102393578243e+02 1.2532169687394722e+02  1.6604928509829058e+01 1.4489761169686884e+02 1.0692229564099451e+02  1.7357340042563752e+01 1.5651075996061562e+02 1.0637460953425000e+02  3.0410719709245519e+01 1.4128933419057626e+02 1.0212375513794944e+02  2.7339571130789366e+01 1.3840806535339004e+02 1.1091893530639331e+02  5.7646380380583601e+01 1.1833401100125229e+02 9.0936965430800342e+01  4.8525740267121741e+01 1.2934180715193153e+02 9.2646735417377641e+01  5.5313558833291445e+01 1.3077795118973242e+02 8.9802710869690017e+01  5.5409243708788452e+01 1.2738387755302506e+02 9.4128228993849902e+01  4.8635877815276736e+01 1.2624040037402796e+02 9.6954918749658191e+01  6.2315762703064067e+01 1.2080741225504724e+02 8.8474778981211912e+01  6.5133562892635041e+01 1.2164890343399190e+02 8.5875004225119042e+01  3.9668482249883745e+01 1.4290294015380627e+02 9.5324725272786836e+01  3.8805354640510451e+01 1.4044154995132305e+02 1.0056662306447302e+02  3.9751934840648964e+01 1.3698980432631808e+02 1.0507791359682197e+02  7.2776813406011158e+01 1.1192063325335060e+02 6.4652352682912294e+01  7.5042885457621992e+01 1.1437116947697338e+02 6.6522957664607262e+01  7.4225962119906285e+01 1.1914755226216438e+02 6.6539398985450958e+01  7.4142130431338686e+01 1.1672711923983471e+02 7.0637194588238160e+01  7.6211430355738770e+01 1.2030138006888765e+02 7.6432559426217210e+01  7.6991894191718529e+01 1.1788674934118033e+02 7.1846095738482390e+01  7.6271939529412435e+01 1.2306380307571909e+02 7.2058741329332861e+01  7.6202696509513089e+01 1.2543390179553776e+02 6.7534829061573774e+01  7.6987218574278543e+01 1.2022584451758395e+02 6.7644812031503562e+01  7.7525281134951982e+01 1.1520630272029237e+02 6.7531550583033166e+01  8.6042915764791971e+01 1.2680119272307367e+02 8.9257216362740493e+01  8.6223756007279391e+01 1.2128045219326738e+02 8.3874942889495827e+01  8.5268204349116189e+01 1.2961495178349810e+02 8.3956487847153937e+01  8.0338080062168245e+01 1.2070169184091436e+02 7.7299989331622115e+01  8.0375247789699984e+01 1.1806475002930507e+02 7.2586702749209095e+01  8.0271430792625353e+01 1.2351651371530787e+02 7.2862264685992997e+01  8.5467561033806078e+01 1.3257048612837548e+02 7.8831133696929783e+01  8.3954828066935704e+01 1.2487604809960185e+02 7.8006714715682733e+01  8.3851327804153883e+01 1.1878806386959619e+02 7.8346464831093840e+01  7.9867653420535405e+01 1.2367991756963191e+02 8.2644174960810091e+01  7.9910183686494932e+01 1.2691144135539034e+02 7.8177452842566268e+01  8.6077830142622190e+01 1.3900315379199006e+02 6.8861072045505836e+01  8.6350690955247146e+01 1.3155633911973680e+02 6.6547140062502436e+01  8.5266186275635135e+01 1.3565702510364653e+02 7.3820407377333098e+01  8.0351406136475489e+01 1.2598586909866636e+02 6.8243554215887258e+01  8.0393181889996939e+01 1.2059236829897826e+02 6.8326473597025199e+01  8.3994746988485076e+01 1.2820512882922688e+02 7.2496385570301996e+01  8.3968057529688181e+01 1.2549202923378887e+02 6.6944065837031459e+01  7.9949717130842402e+01 1.2968567446309049e+02 7.3333158524246159e+01  7.9882243838450506e+01 1.3195191199910363e+02 6.8300254846018888e+01  8.4738298630183010e+01 1.1582720281753235e+02 6.8912008766103554e+01  8.2639682452454267e+01 1.2157498733008231e+02 6.7889636391739742e+01  8.1508277055669282e+01 1.2223716458321412e+02 7.2717794959576381e+01  8.0567970868015991e+01 1.1536549139270973e+02 6.8064776153045685e+01  8.2567867657230167e+01 1.1774199222005035e+02 7.4443990460086582e+01  6.9635775510730411e+01 1.2626106592474223e+02 6.0940784203918483e+01  7.0109570116093124e+01 1.3223462801330851e+02 6.4082844170411263e+01  6.7544648430890661e+01 1.3457864313865389e+02 6.8110765802942709e+01  6.9969902344768926e+01 1.2988270366995667e+02 6.9117708742124506e+01  7.3703973799071946e+01 1.3115684303115432e+02 7.6769217671056637e+01  7.3741775299103494e+01 1.3424223435652431e+02 7.1965060614622061e+01  7.1114152044260180e+01 1.3756494500708399e+02 7.7022323563169806e+01  6.8199496846426712e+01 1.4441778604273193e+02 7.7051256405713346e+01  7.0934988012931910e+01 1.4064620737648093e+02 7.1670463536382741e+01  7.3453384259475030e+01 1.3674243289977443e+02 6.6811708714603540e+01  7.2609014715704532e+01 1.2326573042639340e+02 6.3900392310878665e+01  7.1793621084364489e+01 1.2576684622710103e+02 6.9956433565733576e+01  7.2507278970056021e+01 1.2070519976772601e+02 6.5440532475701730e+01  7.2087104419340420e+01 1.2816660498614721e+02 6.5555282734801438e+01  7.3152516982712214e+01 1.2342760183788400e+02 6.6004203720645293e+01  7.2945708190999540e+01 1.2098951287787695e+02 7.0256917214527647e+01  7.5323262008670270e+01 1.2841976262278286e+02 7.2015575789173838e+01  7.5213045308884872e+01 1.3103324161333080e+02 6.7365996847340398e+01  7.1056614643365521e+01 1.1677559240288254e+02 6.6442429435252052e+01  7.7084485445464665e+01 1.4894820148136574e+02 8.0008033059186687e+01  8.9671967019937028e+01 1.5117073277173395e+02 8.7968857990601876e+01  7.7842174189202112e+01 1.4514071229689179e+02 8.5606222054335191e+01  7.8388425973465701e+01 1.4359305809440309e+02 7.3736440893446257e+01  7.8864133639879100e+01 1.4000618217305299e+02 7.9088452012293331e+01  8.6344460252822543e+01 1.4588305035638911e+02 8.0532216749264066e+01  7.5799419381607720e+01 1.5420902961152430e+02 8.6938808228812817e+01  7.9306163433969104e+01 1.3883976196067189e+02 6.8238974183838721e+01  8.4540132211408050e+01 1.4246967469390100e+02 7.5310159990417091e+01  7.9422722759464406e+01 1.3614664689844940e+02 7.3517444379460699e+01  7.4950975420044088e+01 1.1176941034921803e+02 7.0806530859667390e+01  7.3075342023744653