<?xml version="1.0"?>
<VTKFile type="UnstructuredGrid"  version="0.1"  >
<UnstructuredGrid>
<Piece  NumberOfPoints="5394" NumberOfCells="20941">
<Points>
<DataArray  type="Float64"  NumberOfComponents="3"  format="ascii">-6.143375 -49.007597 -26.391558  -3.5086365 -48.897009 -27.0099495  -4.2813135 -46.175375 -25.6006  -4.633871 -49.387593 -25.9376925  -5.018140499999999 -48.517013 -27.463815  -3.892906 -48.026429 -28.536072  -2.7718095 -46.555371 -25.1467345  -3.156079 -45.684791 -26.672857  -3.124367 -49.767589 -25.483827  -2.419252 -43.343153 -24.809642  -1.245354 -46.075323 -26.1327445  -1.982181 -48.416961 -27.9959595  -1.5979115 -49.287541 -26.469837  -0.07145600000000001 -48.807493 -27.455847  -4.853642 -45.541784 -26.64014  -5.9788765 -46.032368 -25.567883  -5.814378 -43.057139 -24.744208  -4.116815 -43.200146 -24.776925  -7.680115 -47.250312 -29.058971  -6.747246499999999 -45.1537255 -26.9015895  -6.911745 -48.1289545 -27.7252645  -5.7865105 -47.6383705 -28.7975215  11.009033 -21.151806 -50.66954  9.149477000000001 -19.838838 -48.267548  10.719521 -19.475406 -48.1076175  10.102328 -21.0749345 -47.552566  9.195622999999999 -20.998063 -44.435592  8.242771999999999 -19.7619665 -45.150574  9.812816 -19.3985345 -44.9906435  10.430009 -17.799006 -45.545695  8.859964999999999 -18.162438 -45.7056255  7.289921 -18.52587 -45.865556  -4.231346 -38.567777 -40.380965  -2.315475 -35.799481 -39.004932  -3.4965215 -35.430009 -39.249171  -3.535308 -36.3330035 -38.419918  -3.011513 -38.0342545 -40.965979  -4.1925595 -37.6647825 -41.210218  -4.153773 -36.761788 -42.039471  -2.9727265 -37.13126 -41.795232  -1.79168 -37.500732 -41.550993  -2.83927 -34.09823 -36.458871  -2.85751 -34.517234 -40.077251  -4.0385565 -34.147762 -40.32149  -3.92334 -31.533736 -38.603509  -3.381305 -32.815983 -37.53119  5.800392 -25.898824 -49.311321  3.7977055 -25.705091 -46.16136849999999  4.897603 -26.4288005 -45.6677895  5.548043 -25.087272 -46.3503895  4.448145500000001 -24.3635625 -46.8439685  5.149952000000001 -27.2403525 -48.628721  4.499512 -28.581881 -47.946121  5.295694 -24.27572 -43.389458  4.1957965 -23.5520105 -43.883037  3.095899 -22.828301 -44.376616  3.23766 -35.030118 -43.570728  1.4761635 -33.699359 -40.86396449999999  2.0849655 -32.427831 -41.844729  2.8796185 -33.3329455 -41.1038755  1.834205 -35.3965315 -43.330817  1.039552 -34.491417 -44.0716705  2.443007 -34.12500350000001 -44.3115815  1.648354 -33.219889 -45.052435  0.43075 -35.762945 -43.090906  2.521577 -31.635773 -38.637023  16.834654 -46.558103 -26.171309  15.3545755 -44.500367 -24.3342255  15.9548725 -43.385535 -25.8885735  17.007726 -43.738298 -24.601916  17.180798 -40.918493 -23.032523  14.474794 -41.327799 -24.05149  15.5276475 -41.68056199999999 -22.7648325  16.1279445 -40.56573 -24.3191805  15.075091 -40.212967 -25.605838  13.874497 -42.442631 -22.497142  7.567823 -33.001434 -44.605307  5.973642 -30.9737885 -42.5692585  6.8339745 -32.1347125 -41.571159  7.6193925 -30.94548 -42.3435595  7.670962 -28.889526 -40.081812  5.2397935 -30.107067 -39.5351105  6.0252115 -28.9178345 -40.307511  6.885544 -30.0787585 -39.3094115  6.100126 -31.267991 -38.537011  4.379461 -28.946143 -40.53321  8.008528999999999 -14.229503 -53.566638  6.6556455 -14.715179 -50.447231  6.416881 -14.532682 -53.674834  7.331917499999999 -15.739409 -53.213264  6.655306 -17.249315 -52.85989  5.7402695 -16.042588 -53.32146  4.825233 -14.835861 -53.78303  7.964353 -45.212958 -32.068014  5.468836 -43.2424795 -30.116516  6.294857 -44.00092050000001 -28.847151  7.248619 -43.09027500000001 -29.989094  7.010591 -46.1236035 -30.926071  6.18457 -45.3651625 -32.195436  6.056829 -47.034249 -29.784128  5.230808 -46.275808 -31.053493  4.404787 -45.517367 -32.322858  6.532885 -40.967592 -27.910174  0.103369 -30.950747 -46.669482  0.0105845 -27.840972 -45.06237950000001  0.950316 -29.9932705 -47.260107  -0.3776655 -29.625679 -47.492235  -0.8587 -28.300611 -48.314988  0.8575315 -26.8834955 -45.6530045  -0.47045 -26.515904 -45.8851325  0.4692815 -28.6682025 -48.08286  1.797263 -29.035794 -47.850732  -0.0822 -24.731197 -43.455277  17.782391 -13.046718 -51.473971  15.360209 -12.127132 -49.226336  16.1514935 -13.2269695 -51.9352615  16.8854045 -11.7397845 -52.0596285  -0.8336129999999999 -35.723151 -39.1308965  -1.3527025 -34.465665 -40.2131055  -1.357408 -34.0219 -36.5848355  -1.8764975 -32.764414 -37.6670445  -0.913725 -31.430598 -38.875218  -0.3946355 -32.688084 -37.793009  0.124454 -33.94557 -36.7108  -2.430433 -41.989926 -36.972139  -0.320653 -40.0732465 -34.6527085  -1.55275 -39.4244705 -35.375099  -2.385334 -40.66944599999999 -33.866107  -1.198336 -42.63870199999999 -36.2497485  0.033761 -43.287478 -35.527358  -1.153237 -41.318222 -33.1437165  -2.340235 -39.348966 -30.760075  -1.507651 -38.10399049999999 -32.269067  -0.675067 -36.859015 -33.778059  11.311237 -44.397121 -32.201733  8.720955500000001 -44.1479555 -33.282449  9.741709499999999 -41.4940485 -31.462768  9.637795000000001 -44.8050395 -32.1348735  10.3943975 -43.740037 -33.3493085  9.477558 -43.082953 -34.496884  8.068267499999999 -41.901967 -31.3959085  8.824870000000001 -40.8369645 -32.6103435  8.172181999999999 -38.590976 -30.723803  8.983081500000001 -42.6626105 -30.0961025  10.6565235 -42.254692 -30.162962  10.00181 -40.112263 -28.124191  9.086995999999999 -39.3516195 -29.423997  12.495649 -42.218129 -34.604745  9.503070000000001 -39.6708765 -33.787424  10.155758 -41.916865 -35.6739645  10.9866035 -42.650541 -34.5508145  10.3339155 -40.40455249999999 -32.664274  11.6648035 -41.484453 -35.727895  10.833958 -40.750777 -36.851045  11.190295 -39.1709215 -33.865625  12.0211405 -39.90459749999999 -32.742475  11.546632 -37.591066 -30.880205  9.859407000000001 -38.091021 -30.802004  6.110854 -30.841576 -46.340637  5.404761000000001 -27.561 -44.924229  4.624612 -28.4742385 -44.434022  6.210432 -28.6908475 -44.121487  5.305183 -29.7117285 -47.143379  3.818941 -27.344391 -45.23676399999999  6.31001 -26.540119 -41.902337  4.72419 -26.32351 -42.214872  3.13837 -26.106901 -42.527407  -2.994825 -44.38259 -34.017889  -2.66753 -41.865778 -32.388982  -1.480532 -43.835034 -34.77262349999999  -2.712629 -43.186258 -35.495014  0.627854 -40.898491 -38.248128  1.220135 -38.290164 -36.613501  1.8018755 -39.181037 -35.6136365  -0.02360649999999997 -38.878753 -36.0130935  0.5686745 -36.270426 -34.3784665  1.150415 -37.161299 -33.378602  2.975897 -37.463583 -32.979145  2.3941565 -36.57271 -33.9790095  1.812416 -35.681837 -34.978874  18.149713 -29.706552 -43.864663  16.65336 -30.1366045 -40.2724345  15.966428 -28.989879 -41.365877  17.463562 -28.738413 -40.9542295  17.339511 -31.1047435 -43.182868  16.529309 -32.502935 -42.501073  15.156226 -30.3880705 -40.684082  16.777411 -27.770274 -38.043796  15.280277 -28.02174 -38.4554435  13.783143 -28.273206 -38.867091  19.658172 -26.794241 -45.07355  16.7965935 -24.7043495 -43.746426  17.5356085 -26.0271415 -42.6885015  18.271031 -24.4114895 -43.3314195  18.1837345 -27.087101 -45.4885565  16.709297 -27.379961 -45.903563  16.061171 -26.3200015 -43.103508  16.88389 -22.028738 -41.589289  16.1484675 -23.64439 -40.946371  15.413045 -25.260042 -40.303453  0.3673145 -32.3252435 -41.9638265  -0.2414875 -33.5967715 -40.983062  0.8039260000000001 -31.5331855 -38.75612049999999  17.364117 -41.900674 -32.84541  16.5099065 -40.860625 -29.4142745  15.3408485 -40.4675695 -30.55558  16.9175375 -39.8533265 -30.5596735  16.956486 -42.9079725 -31.700011  16.548855 -43.915271 -30.554612  14.9332175 -41.474868 -29.410181  16.470958 -37.805979 -28.273937  14.894269 -38.420222 -28.2698435  13.31758 -39.034465 -28.26575  6.124515499999999 -33.072712 -44.75016  6.8393385 -31.921505 -45.472972  5.245157499999999 -29.8938595 -43.4369235  5.396031 -31.992783 -45.617825  4.681208 -33.14399 -44.895013  4.5303345 -31.0450665 -42.7141115  6.333607000000001 -42.2392175 -31.3319265  4.553824000000001 -42.391422 -31.4593485  5.617873 -40.1165345 -29.2530065  4.702861 -39.265477 -30.595839  15.772428 -45.562065 -28.483832  13.53358 -46.1000455 -28.721179  13.8315295 -43.4906045 -26.921303  14.6494305 -45.395613 -29.303113  14.6565775 -46.2664975 -27.901898  13.540727 -46.97093 -27.319964  12.708532 -43.3241525 -27.740584  12.715679 -44.195037 -26.339369  13.526433 -45.229161 -30.122394  11.890631 -41.419144 -25.358774  14.300762 -42.721064 -27.864116  15.4237595 -42.887516 -27.044835  13.482861 -40.8160555 -25.482306  8.588379 -19.526564 -51.777921  6.035418 -18.790485 -52.3784315  6.9200745 -17.6856845 -49.454619  7.0019545 -19.9291095 -51.837447  7.6218425 -18.3879395 -52.3189055  5.33365 -18.08823 -49.514145  5.953538 -16.54706 -49.9956035  5.41553 -20.331655 -51.896973  5.25177 -15.844805 -47.131317  0.8140230000000001 -45.297309 -32.916427  0.5857644999999999 -41.3814695 -33.096597  0.9758955 -42.386385 -31.7911315  -0.7631059999999998 -42.3231375 -31.838251  0.423892 -44.2923935 -34.2218925  -0.6012335 -39.4122135 -30.7129555  1.137768 -39.475461 -30.665836  3.0139075 -31.083016 -42.7928225  3.6013925 -32.3898815 -41.766018  3.164781 -33.1819395 -44.973724  3.450519 -30.290958 -39.5851165  6.336097 -43.727163 -34.406236  3.912297 -41.5918645 -32.599956  4.820927 -40.76508699999999 -33.5002665  5.519479 -41.49632 -32.5010375  4.728915 -43.8227075 -34.5051545  5.637544999999999 -42.99593 -35.405465  4.938993 -42.264697 -36.404694  4.030362999999999 -43.0914745 -35.5043835  3.121733 -43.918252 -34.604073  3.417927 -41.00561 -37.984968  1.971428 -40.084976 -39.0160415  2.6151715 -38.3437235 -36.481921  2.0228905 -40.9520505 -38.116548  3.3664645 -40.1385355 -38.8844615  3.315002 -39.271461 -39.783955  2.563709 -37.476649 -37.3814145  2.171866 -47.108214 -30.20098  -0.3320205 -45.179518 -27.6304245  1.63339 -45.308852 -27.406235  0.7896405 -44.3298785 -29.002991  1.050205 -47.9578535 -28.8284135  0.511729 -46.1584915 -26.0336685  -0.592585 -41.551543 -27.805002  0.2511645 -42.5305165 -26.208246  1.094914 -43.50949 -24.61149  14.406344 -43.298417 -32.460812  12.976488 -
[...]
<PointData  Vectors="u"> 
<DataArray  type="Float64"  Name="u"  NumberOfComponents="3" format="ascii">7.3802528223685940e+01 -7.0613832794385445e+00 -3.8862694439346805e+00  7.4092515369571018e+01 -3.8671531016600471e+00 -1.9872896032383560e+00  7.8325831120553559e+01 -5.4761872960443343e+00 -3.0127410933960506e+00  7.4521997131137411e+01 -5.4613316639373100e+00 -2.6143219955657324e+00  7.4021889568989906e+01 -5.6538274889275026e+00 -3.8257503473655374e+00  7.3682796998918320e+01 -4.2579816610635000e+00 -2.5889436057675042e+00  7.8333492350768466e+01 -3.5009256269122990e+00 -1.9065975688126033e+00  7.8364809477262412e+01 -4.0124963200162096e+00 -2.3448776819168913e+00  7.3855512752155747e+01 -3.5155808302712321e+00 -1.8146017658551734e+00  8.3172529303202992e+01 -3.3478189476918470e+00 -1.6961079335179767e+00  7.8297162928813037e+01 -1.5851018932249976e+00 -8.7011968836170805e-01  7.4920320803298836e+01 -2.3960426579309106e+00 -1.1330483642657454e+00  7.4538663770247112e+01 -1.7423747672732453e+00 -1.4882905563644433e+00  7.3739346271036155e+01 -8.6262567544375904e-02 -5.7327184382672244e-02  7.8303652242446049e+01 -6.1918542854394270e+00 -3.6055739200726262e+00  7.8343704352883719e+01 -7.7234623910796429e+00 -4.2825967033354324e+00  8.3267904694938593e+01 -8.4138730811247733e+00 -4.8989274266201353e+00  8.2624415481226151e+01 -5.9256747816398132e+00 -3.3328752068079748e+00  7.3619186593979848e+01 -8.5575291827452915e+00 -5.2593475218833792e+00  7.8289355182176919e+01 -8.6203670772187238e+00 -5.0973796297586587e+00  7.4208606449967817e+01 -7.9649321192744349e+00 -4.2840089876554748e+00  7.4874992598521928e+01 -6.7431735316043850e+00 -3.9654861837380029e+00  7.3606705523094206e+01 5.6498533821067669e+00 1.3679847586238816e+01  7.8284327972347583e+01 5.1748912426155034e+00 1.2683589299877871e+01  7.8342525609966501e+01 6.0378458452994845e+00 1.5007660031310591e+01  7.8364034580727818e+01 6.1317346358888303e+00 1.3915896326232907e+01  8.3288836533149421e+01 6.6643839881216405e+00 1.4164549360162146e+01  8.3148851005850034e+01 5.9141303882084584e+00 1.2651363321860817e+01  8.2854400811844855e+01 6.3748966652246057e+00 1.5317294177246712e+01  8.3202576573611779e+01 6.4317548713208668e+00 1.6543416984893703e+01  8.2538758132090209e+01 5.1864571857485142e+00 1.3933574804941088e+01  8.3287829158613235e+01 4.5542544600766144e+00 1.1344152472818298e+01  7.3717448334896389e+01 -3.8110593588024062e+00 -3.9760455467163935e+00  7.8203300499133718e+01 -2.3381398634934865e+00 -2.5056606471939014e+00  7.8131066789274968e+01 -3.5412657536586623e+00 -3.8181537517140614e+00  7.8177531738793832e+01 -3.6766718099571873e+00 -3.8335837083644693e+00  7.4226851060085039e+01 -2.5195351828214338e+00 -2.9344210146042280e+00  7.3641736071656055e+01 -3.7109252220089313e+00 -4.0983615442886983e+00  7.3734437763183237e+01 -3.6041039420398429e+00 -4.0873424701198910e+00  7.4159334468372052e+01 -2.7076916088127732e+00 -2.7246872093531302e+00  7.3862557842690478e+01 -1.5518304963916774e+00 -1.5815546913011691e+00  8.3140563137506362e+01 -3.2970019851274044e+00 -3.5669189313336802e+00  7.8243019408834229e+01 -2.7311339457403321e+00 -3.1991818771139848e+00  7.8203848916677060e+01 -3.8976585214292458e+00 -4.5874191106501003e+00  8.3286882571518916e+01 -4.1386336668068422e+00 -5.3317648729219771e+00  8.3385873602103899e+01 -3.6210999700986988e+00 -4.5134424896807017e+00  7.3840063081673819e+01 3.4993331959877199e+00 6.7833350949883107e+00  7.8297089161154616e+01 2.6770614299617987e+00 4.8235526945312568e+00  7.8391443126532181e+01 3.6184239598335135e+00 6.2516571462688244e+00  7.8430007844525633e+01 3.9298945408642840e+00 7.1893081524506774e+00  7.8319994860352566e+01 3.0348315287264738e+00 5.7802002896892519e+00  7.4012632252793665e+01 3.5695585086322179e+00 5.7584641036284632e+00  7.3904559354075104e+01 3.1191875815136658e+00 5.1055717724590215e+00  8.3364471496077343e+01 4.3087103571517558e+00 7.6573299379583428e+00  8.3198739301421313e+01 3.7277625869842668e+00 5.8125521193479583e+00  8.3347234773735494e+01 2.2900451731101059e+00 4.1619690847092841e+00  7.3758408872584923e+01 2.6716178335101981e+00 3.3410356732722803e+00  7.8288495341738283e+01 1.3532326321459580e+00 1.6405301323676442e+00  7.8285388069530200e+01 1.8238151472955284e+00 2.4157229163490137e+00  7.8287035282838147e+01 2.6547828608488993e+00 3.3398137947675952e+00  7.4463324452001999e+01 1.6807332535049206e+00 1.7137870586749591e+00  7.4173992439318667e+01 8.1620839430429593e-01 6.9733483285784925e-01  7.3866918630257175e+01 1.6016813949113520e+00 2.7139675097871829e+00  7.3853675808803530e+01 1.1991375561193089e+00 1.6922289527697387e+00  7.3897714846095212e+01 3.9765520797954335e-01 3.7924350120930894e-01  8.3352627606647161e+01 2.5388946320498333e+00 3.1108341984523324e+00  7.3752187061151218e+01 2.0246392941493365e+01 1.1384375551881043e+01  7.8259054940105258e+01 2.0835823093554620e+01 1.1399912374784439e+01  7.8290990631792766e+01 2.1183922728221852e+01 1.2673999855857950e+01  7.8276715151577250e+01 2.3129200140709361e+01 1.2979435646981553e+01  8.3353779237940017e+01 2.6755620824464224e+01 1.4817740357020639e+01  8.2716264209691616e+01 2.1480912211831203e+01 1.2843084326075340e+01  8.2442223404085553e+01 2.3333146531061324e+01 1.3441165913529369e+01  8.3371209461471437e+01 2.4386680098612434e+01 1.4004825196195419e+01  8.3250018148332018e+01 2.2092409480924886e+01 1.4068257734996720e+01  8.3347018428057865e+01 2.1323923039299988e+01 1.1326762266721161e+01  7.3918531054308815e+01 5.9417050378303555e+00 8.0899544585991023e+00  7.8307123389107929e+01 5.1840135398824900e+00 7.1706554711578834e+00  7.8348174948531565e+01 6.1990623022592928e+00 8.0571121495671409e+00  7.8377087118492781e+01 6.6649584301270801e+00 9.1631917009894703e+00  8.3258442532944144e+01 7.5287030753846196e+00 1.0461189135870617e+01  8.3093853770471256e+01 5.3113142496836314e+00 6.6194161759840178e+00  8.2624539921150742e+01 5.9808346841752336e+00 8.1843895336743735e+00  8.3252798676114764e+01 6.6679885910170951e+00 9.3280298217171023e+00  8.3277916530962642e+01 6.2330603905908868e+00 8.0414145483892288e+00  8.3316312653746536e+01 4.1181519301941609e+00 5.8165637370973258e+00  7.3803375481934140e+01 2.6748277212838056e+00 1.0318165533407072e+01  7.8287694346788129e+01 2.7479618428599166e+00 9.4479197343385053e+00  7.4582402752149179e+01 2.4798968590152186e+00 8.2693983749430995e+00  7.4345972730591129e+01 2.9246623430196910e+00 9.2811502690061243e+00  7.3890960277333761e+01 2.7015521438746410e+00 8.4023205610768237e+00  7.4004155793620043e+01 1.8444875733472530e+00 7.4628620375907921e+00  7.3841370010430296e+01 1.6539606663206936e+00 6.2268473425279689e+00  7.3831549337773183e+01 8.7425396827261324e+00 6.1591801709279812e+00  7.8281686620724145e+01 6.6563658146247100e+00 4.6391689619647698e+00  7.8362087822059138e+01 7.8014312787340359e+00 5.1376215457107284e+00  7.8315755307260204e+01 8.8994793259889899e+00 6.1967245812536058e+00  7.4030257012319751e+01 8.1660375655194208e+00 4.9704460159856243e+00  7.4737812704841033e+01 6.7549007672315007e+00 4.8101193544028948e+00  7.3555642621913549e+01 6.8743097036156140e+00 4.3035667192930678e+00  7.3916793899103823e+01 5.4980816441301981e+00 4.1855143894289366e+00  7.3645382409276834e+01 4.7180477745512954e+00 3.3607273404402944e+00  8.3252892367821374e+01 9.0789501114760345e+00 6.0997160995899877e+00  7.3755068551167838e+01 -1.1612306117364751e-02 -3.3508804831929771e-02  7.8231231183937638e+01 -4.0842625736599490e-02 -8.2030701163466072e-02  7.3882211995033160e+01 9.0240413752667714e-01 8.8855642771501531e-01  7.3991883583817454e+01 -5.6756607151375860e-01 -5.8768337005392912e-01  7.3680095681879834e+01 -7.6155992520627458e-01 -1.1261498963698524e+00  7.8185594022128015e+01 5.6714934794101812e-01 1.0106486610363894e+00  7.8179521359283669e+01 -4.2619369558114595e-01 -6.5434365798878713e-01  7.4218950589869678e+01 7.6873964600287753e-02 7.3015769234243033e-01  7.3830165901209043e+01 1.2041086934156637e+00 2.0007851070133764e+00  8.3052091258890940e+01 -8.8607364714398829e-03 -3.2606885091192628e-01  7.3879532412503437e+01 6.1035733046489415e+00 2.3979674855253617e+01  7.8334494062313496e+01 5.6928152083986667e+00 2.3091700242583691e+01  7.4725450104175707e+01 5.5664906040490560e+00 2.1917356826547174e+01  7.4342395924258213e+01 4.9340116945128116e+00 2.2949200870554019e+01  7.8259695394492070e+01 -8.1900293233729116e-01 -9.3740993058700983e-01  7.8247639697800111e+01 -1.3501927470399531e+00 -1.5436057612843663e+00  8.2357878535609345e+01 -1.6284174229797264e+00 -1.6354844086306970e+00  8.2588940853286360e+01 -2.1221988881055074e+00 -2.2627576577360244e+00  8.3159520249612441e+01 -9.2091822350865016e-01 -1.1620218119834136e+00  8.3424259338141098e+01 -1.1867549889077643e-01 -8.3141383747071351e-01  8.3073712325977240e+01 6.1235697286739901e-02 -2.0185389451309138e-01  7.3828670007252882e+01 -2.4431042798418927e+00 -2.0394425688668867e+00  7.8272074273963852e+01 -4.0519127723691173e-01 -3.0419899078426432e-01  7.8238587634464352e+01 -1.8141145912817211e+00 -1.5007374462976297e+00  7.8271727406775696e+01 -2.7224452489582687e+00 -2.2321878956922605e+00  7.4308347840367631e+01 -1.6574778940760080e+00 -5.8267769699395711e-01  7.3882697183785595e+01 -1.3517609058328339e-01 -9.7948578641773504e-02  7.8279514627212350e+01 -1.4248521441534281e+00 -1.0366419481699531e+00  8.3182236768964401e+01 -3.0561909934683538e+00 -2.3366781286356693e+00  8.2950493225996809e+01 -2.0643553319662735e+00 -1.1883900858983949e+00  8.3132776117473625e+01 -1.1652759704674736e+00 -7.6365869586294810e-01  7.3895159492478996e+01 1.2216791562295546e+01 8.9680099130507429e+00  7.4439986233677772e+01 9.4595559220630694e+00 6.8956345415798683e+00  7.8304709558313505e+01 1.1612861509955765e+01 8.8554903003139565e+00  7.4799409570060476e+01 1.0645927077774077e+01 7.4750108835017555e+00  7.4079298512448915e+01 1.0860088152050382e+01 8.8642608746008200e+00  7.3895973913120415e+01 9.8500423159093558e+00 8.0197028436729028e+00  7.8345266919749534e+01 9.6658871363351277e+00 7.2542821990372417e+00  7.8323018101735869e+01 1.0369608447247057e+01 8.2954493088636276e+00  8.3272486358448276e+01 1.0859524563883365e+01 8.5112087123854909e+00  7.8336408499632640e+01 1.0996578116443889e+01 7.7610384253458120e+00  7.8334600211746292e+01 1.3026321827751868e+01 9.3449567009443495e+00  8.3317543422061604e+01 1.3895663963968335e+01 9.6864859681537201e+00  8.3328678724690320e+01 1.2592251937684651e+01 8.7236864915446688e+00  7.3911901769035339e+01 1.2952788277551507e+01 1.0721018235794423e+01  7.8322845525086166e+01 1.0848904642017663e+01 9.2487855706857136e+00  7.4532998561553512e+01 1.0571198848990994e+01 8.8612544453366642e+00  7.4616515676603953e+01 1.1765633561373882e+01 9.2558498387248580e+00  7.8331596763218272e+01 1.2117817991629355e+01 9.8176937165070957e+00  7.4014727833520269e+01 1.1614926454852544e+01 1.0650432979924830e+01  7.3896102070807501e+01 1.0794473235387676e+01 9.9202901822094489e+00  7.8285447194467537e+01 1.2815279857377407e+01 1.1125436185473255e+01  7.8322758710095201e+01 1.4076210657659310e+01 1.1579368061802164e+01  8.3246266034312995e+01 1.5279716879389726e+01 1.2484442001386197e+01  8.2386349023250077e+01 1.2679683340714313e+01 1.0721694762838547e+01  7.3878602124084281e+01 4.5342348711049398e+00 6.7561535991180603e+00  7.8344922368297972e+01 4.1795881398391632e+00 6.8039368524904429e+00  7.8308411929239696e+01 3.6397450046407376e+00 5.7353472566024495e+00  7.8391435696419009e+01 4.9842334400067152e+00 7.6872769886638865e+00  7.4387797628577630e+01 3.6109094404664539e+00 6.1252756258424341e+00  7.8343933373649435e+01 2.9076198764386305e+00 4.8444442015709415e+00  8.3342049212282944e+01 5.6910410660907802e+00 8.8853018181972594e+00  8.2736745238789467e+01 4.2484709144228274e+00 6.5056550314362660e+00  8.3322214278953936e+01 2.5147882313967145e+00 4.1122470500524742e+00  7.3757888478016227e+01 -3.0614460098012670e+00 -2.4667356518528578e+00  7.8322537722116891e+01 -3.1518514928448655e+00 -2.4118491290294597e+00  7.4527056901635078e+01 -1.2758460824460056e+00 -1.5090941130183217e+00  7.4188025791600481e+01 -2.8966045557260216e+00 -2.4595433820843779e+00  7.3898861409706242e+01 3.9694792952961716e-01 5.8571567638231015e-01  7.8298658270611384e+01 1.2396543001718967e+00 1.2057241995370329e+00  7.8302634855315091e+01 1.9011676093502994e+00 1.7538086197122615e+00  7.8298664095606782e+01 -8.5396748740380266e-02 1.6921126075398564e-02  8.2896852568643553e+01 5.5774028388581955e-02 1.0127476849384425e+00  8.2400606442039148e+01 1.4212883246555270e+00 9.2544345240146197e-01  8.3435705553208138e+01 3.6782423233546666e+00 3.1999029174962490e+00  8.3534946856423147e+01 3.0390477106033709e+00 2.4407980038410284e+00  8.3450210802907762e+01 1.8977507536064351e+00 2.0316417437112535e+00  7.3890492618554774e+01 1.4151485969285227e+01 2.1002726764090635e+01  7.8292597388404133e+01 1.5531748093411274e+01 2.0773577445358264e+01  7.8288554088060792e+01 1.4194508956942135e+01 2.0280109551154410e+01  7.8353544394807955e+01 1.5752334172160246e+01 2.2396094134863304e+01  7.4413041561309953e+01 1.4339754682198825e+01 1.9576398367805471e+01  7.3840376160563466e+01 1.3799742245930361e+01 1.8185589597758391e+01  7.8328882687133856e+01 1.4048197934182920e+01 1.8797751627121137e+01  8.3174099204139125e+01 1.7553753782362438e+01 2.3850276709228019e+01  8.2346816201245375e+01 1.5627682084587093e+01 2.1447682495783841e+01  8.3143345487466704e+01 1.4079817376140175e+01 1.9599191084824461e+01  7.3915125619356715e+01 1.4082106042469331e+01 2.3844008178438933e+01  7.8326709917995075e+01 1.2893160972749641e+01 2.2867346081423840e+01  7.8302899216872987e+01 1.4295128575580090e+01 2.3428192584957042e+01  7.8307318812349720e+01 1.4112470877854687e+01 2.5117493933014739e+01  7.4608326862609644e+01 1.3184256042241966e+01 2.1972879222335468e+01  7.3911392110092876e+01 1.1789422720825023e+01 1.9905507595977713e+01  7.8343934259707069e+01 1.2970981842420292e+01 2.1275457553008085e+01  8.3228947021328821e+01 1.4008499768717964e+01 2.6446000286431978e+01  8.2761214874380514e+01 1.3969711756242418e+01 2.4616447396343222e+01  8.3245774851623352e+01 1.4371649518708509e+01 2.2917637611475776e+01  7.8245930226348534e+01 3.1131738595700603e-01 4.1469986462298486e-01  7.8303901146823648e+01 -1.9645044623752961e-01 -2.6085803639159072e-01  8.2334951008174158e+01 8.9802925501255115e-01 8.9938185361052436e-01  7.3846223235932001e+01 1.9015625941692786e+01 1.4969166914531337e+01  7.8271703173511341e+01 2.0869109844439627e+01 1.5074015209155279e+01  7.8288082000958212e+01 1.8837179361823456e+01 1.4234269108607460e+01  7.8330749252980993e+01 2.0967693060470435e+01 1.6030959570746798e+01  7.3899280745971566e+01 1.9012070926255721e+01 1.3849665610133995e+01  7.3740224697723576e+01 1.8717785699947672e+01 1.3085543051604324e+01  7.8308670695095941e+01 1.8774592358165055e+01 1.3300261784008024e+01  8.3341444477471171e+01 2.3279715092663029e+01 1.7278878992624826e+01  8.2459191894791829e+01 2.0433941090642719e+01 1.5559716307277954e+01  8.3264017662513837e+01 1.8657178352168852e+01 1.3421651100189766e+01  7.4647743376498397e+01 4.8068828636976644e+00 6.6652550729634257e+00  7.4358279873307310e+01 5.0919919637026529e+00 7.6150054773365152e+00  7.8361703912932668e+01 4.3626570894903525e+00 6.4039840227592233e+00  7.4156698145607521e+01 4.2697107680399187e+00 5.8425031876289024e+00  7.3824925144564318e+01 3.7603127979348816e+00 4.9855101723499899e+00  7.8353388070384455e+01 3.8643370025416992e+00 5.4101699484964847e+00  7.8300513899970611e+01 7.5760160765694859e+00 5.6240230283622399e+00  7.8296484072628857e+01 5.4091644194123107e+00 4.0381045529218769e+00  8.3338092986291699e+01 7.8986796559658448e+00 5.1020478573250294e+00  8.3276477803729350e+01 6.2743267700710508e+00 4.8002555382582095e+00  7.3803627487115662e+01 1.8321528469746166e+01 1.1464873938513612e+01  7.4067810639390018e+01 1.5260005121785051e+01 9.4929490813022159e+00  7.8296182672342653e+01 1.7944952986068287e+01 1.1124256576040718e+01  7.4088730836194046e+01 1.6586560595030853e+01 1.1196136799880302e+01  7.4070869583693181e+01 1.7370334983698001e+01 1.0009218443569972e+01  7.3815208752514536e+01 1.5743936951193577e+01 9.0052540836199864e+00  7.8351846382127533e+01 1.6262260264613925e+01 1.0451156736522259e+01  7.8344691311450575e+01 1.6581754345504788e+01 9.8788022136528788e+00  7.3882844584254528e+01 1.4992498250279981e+01 1.0131297102694878e+01  8.3280024411529894e+01 1.7373825624876901e+01 1.0624645130889796e+01  7.8289694444939087e+01 1.8290879199874922e+01 1.1957112194458531e+01  7.8273022099216462e+01 2.0083002876705557e+01 1.2684533981237063e+01  8.2478961946053147e+01 1.9418815392454981e+01 1.2606280582123844e+01  7.3951498046325838e+01 3.9715077401480694e+00 1.0641128581722414e+01  7.4342552640736571e+01 2.8795348659480178e+00 7.4713384613511842e+00  7.8287971138785963e+01 3.4524956427970941e+00 9.6838921861734697e+00  7.4642032291890729e+01 3.5744662675780150e+00 8.7856834568426194e+00  7.4098787847802470e+01 2.9652829173330257e+00 9.7567353089694961e+00  7.8309261983277167e+01 2.7177828072631232e+00 7.4276092257178981e+00  7.8297506807629574e+01 2.7919146805062396e+00 8.4138765602970444e+00  7.3844220654046580e+01 2.6441595529123862e+00 6.6799344238497778e+00  8.3272864884641933e+01 2.7045999508651413e+00 8.1690814001290573e+00  7.3695965370559932e+01 7.6123958470753905e-01 4.3728822214718405e-01  7.8289488512481341e+01 5.8541278844721734e-01 5.2604395537674598e-01  7.8293181055605174e+01 1.0912068641480590e+00 8.4943481114016506e-01  7.8287723250859671e+01 -9.6074133882916324e-01 -6.9549143362700228e-01  7.3966950716793505e+01 1.0530205258707080e-01 3.2053083085147327e-01  8.2292712580080391e+01 -7.2391372749682792e-01 -6.0072804010426739e-01  8.3146846936174668e+01 1.2977880484095796e+00 1.1884500595963150e+00  7.8273394174414562e+01 2.5483859345660496e+00 3.5903817087119356e+00  7.8275135387474748e+01 3.2333975242316511e+00 4.1985677654743974e+00  7.4458413475199009e+01 2.4439244028550506e+00 3.3279681679966191e+00  8.2983728616418830e+01 2.9528283815959879e+00 4.6322408612904535e+00  7.3840391613874218e+01 6.6211248727764191e+00 5.2887483773931878e+00  7.8267742848149595e+01 4.5360299489255480e+00 3.5747808781138253e+00  7.8272338952812760e+01 5.5321213544432801e+00 4.5684575565061127e+00  7.8292820828276902e+01 6.4877021625716242e+00 5.1057418159356693e+00  7.4495145583087421e+01 4.9073104870676518e+00 3.9211305538912251e+00  7.3863806874094010e+01 5.5785870059943274e+00 5.1048849202138458e+00  7.3843362448199159e+01 5.0049790382226913e+00 4.3938782403712970e+00  7.4121730714963917e+01 4.3640284644196363e+00 3.3923192214195219e+00  7.3765241506807058e+01 3.1856307050491939e+00 2.5612735152379851e+00  7.3764722457096795e+01 3.3019891892148698e+00 3.0084417524285327e+00  7.4515942459565267e+01 1.8003838092117346e+00 1.6484749106202670e+00  7.8252473786385778e+01 2.7145859934969918e+00 2.6629677618784648e+00  7.4421869535707884e+01 1.7846571043924280e+00 1.8532711109991755e+00  7.3556620670716697e+01 3.0045643618062949e+00 3.0328156740859922e+00  7.3769394794069058e+01 2.9499764482355526e+00 3.1420874475371616e+00  7.8378478765182649e+01 2.6805764393569729e+00 2.7103412477352973e+00  7.3697708976475823e+01 2.3256099282819234e+00 1.4889154896846624e+00  7.8313415658929443e+01 -4.1927424974185884e-01 -2.4014772008001878e-01  7.8272785226637140e+01 2.0713968430243135e+00 1.2679660265036639e+00  7.8284445573231864e+01 9.5371265387738202e-01 6.4913164619661656e-01  7.4095358752877459e+01 1.3379782989021940e+00 1.7638093840807323e-01  7.8291641427462736e+01 6.2953393331954177e-01 3.3887741047167108e-01  8.3210992837537376e+01 -7.9398680125310006e-01 -4.3991226756694557e-01  8.2953815013168352e+01 6.4290379173707168e-01 5.2192509267400475e-02  8.3156816334062768e+01 1.6443871983844296e+00 8.9265685753486923e-01  7.3765136108652570e+01 1.5589340116615373e+01 1.1781068989161891e+01  7.8283681492599428e+01