<?xml version="1.0"?>
<VTKFile type="UnstructuredGrid"  version="0.1"  >
<UnstructuredGrid>
<Piece  NumberOfPoints="4897" NumberOfCells="22180">
<Points>
<DataArray  type="Float64"  NumberOfComponents="3"  format="ascii">52.226008 -18.208582 -8.768789999999999  51.20875775 -18.59738025 -9.03449775  51.442786 -17.95147675 -9.094369499999999  51.44276600000001 -18.28245025 -8.41685  50.659524 -18.3563185 -8.064909999999999  45.989047 -18.707171 -5.920243  46.76504525 -18.656392 -6.28043975  46.50999625 -19.0479295 -6.843582749999999  46.76504525 -18.37565175 -6.977003  47.5410435 -18.0441325 -8.033763  47.5410435 -18.32487275 -7.33719975  47.2859945 -18.71641025 -7.90034275  47.0309455 -19.388688 -7.7669225  47.2859945 -18.9971505 -7.2037795  47.5410435 -18.605613 -6.6406365  45.989047 -18.42643075 -6.61680625  46.76504525 -18.0949115 -7.67356625  46.50999625 -18.76718925 -7.540146  45.989047 -18.1456905 -7.3133695  49.09304 -18.504055 -7.36103  48.31704175 -18.554834 -7.00083325  48.06199275 -18.9463715 -7.56397625  48.31704175 -18.27409375 -7.6973965  48.06201275 -18.615398 -8.24149575  48.33602425 -19.916035 -8.4170205  48.907034 -24.510716 -11.7971665  47.6229965 -24.01841075 -11.070328  47.9455315 -23.2622015 -11.27186925  47.6270005 -23.56999575 -11.98539025  46.984029 -22.013687 -10.746572  46.661494 -22.76989625 -10.54503075  46.338959 -23.5261055 -10.3434895  47.24339725 -24.39134575 -11.81415475  37.452681 -39.907084 -11.862602  34.988803 -38.09079699999999 -11.5502235  35.6204435 -37.9153465 -10.0499015  36.2211685 -36.993333 -11.2770025  34.989656 -34.079582 -10.691403  33.7572905 -35.177046 -10.964624  34.388931 -35.0015955 -9.464302  33.788206 -35.923609 -8.237201000000001  32.524925 -36.27451 -11.237845  35.62526099999999 -37.071378 -12.743508  50.201313 -24.815885 0.002145  48.89221125 -24.062544 -0.41726775  48.892116 -24.062781 0.4199595  49.9242415 -23.57624025 -0.3752365  49.64717 -22.3365955 -0.752618  48.61513975 -22.82289925 -0.79464925  48.6150445 -22.82313625 0.042578  47.582919 -23.309677 0.837774  47.58301425000001 -23.30944 0.0005467500000000403  47.5831095 -23.309203 -0.8366804999999999  49.093027 -19.857306 -1.507381  48.06099675 -20.34360975 -1.54941225  48.0609015 -20.34384675 -0.7121850000000001  48.33806825 -21.5832545 -1.17203075  47.306038 -22.06955825 -1.214062  47.30594275 -22.06979525 -0.37683475  47.028776 -20.8303875 0.08301099999999995  47.02887124999999 -20.8301505 -0.75421625  47.0289665 -20.8299135 -1.5914435  48.33797300000001 -21.5834915 -0.3348035  47.3058475 -22.07003225 0.4603925  49.3700985 -21.09695075 -1.1299995  44.964525 -21.803469 1.673403  44.96462025 -21.803232 0.83617575  45.9966505 -21.31692825 0.878207  46.27381725 -22.556336 0.41836125  46.27391249999999 -22.556099 -0.418866  45.99674575 -21.31669125 0.04097974999999998  44.9647155 -21.802995 -0.001051499999999983  46.27372200000001 -22.556573 1.2555885  44.964906 -21.802521 -1.675506  44.96481075 -21.802758 -0.83827875  45.996841 -21.31645425 -0.7962475  46.27400775 -22.555862 -1.25609325  45.99693625 -21.31621725 -1.63347475  45.989047 -19.621608 0  46.765042 -19.62304325 -1.12565125  46.765042 -19.6805325 -0.37684525  46.50900675 -20.22576075 -0.79572175  47.541037 -19.68196775 -1.5024965  47.28500175 -20.227196 -1.921373  47.28500175 -20.28468525 -1.172567  47.541037 -19.739457 -0.7536905  47.541037 -19.6244785 -2.2513025  45.989047 -19.56411875 -0.748806  46.765042 -19.565554 -1.87445725  46.50900675 -20.1682715 -1.54452775  45.989047 -19.5066295 -1.497612  45.73301175 -20.16683625 -0.4188765  46.2529715 -20.770989 -1.21459825  45.4769765 -20.7120645 -0.837753  45.73301175 -20.109347 -1.1676825  45.989047 -19.391651 -2.995224  45.989047 -19.44914025 -2.246418  45.73301175 -19.9943685 -2.6652945  46.50900675 -20.11078225 -2.29333375  46.2529715 -20.71349975 -1.96340425  45.4769765 -20.597086 -2.335365  45.73301175 -20.05185775 -1.9164885  46.765042 -19.50806475 -2.62326325  48.317032 -19.74089225 -1.87934175  48.317032 -19.7983815 -1.13053575  45.4769765 -20.65457525 -1.586559  45.22094125 -21.1998035 -2.0054355  45.22094125 -21.25729275 -1.2566295  49.9242405 -23.5762785 0.37794725  49.64716900000001 -22.33663375 0.0005657500000000315  48.6150435 -22.8231745 0.79576175  49.647168 -22.336672 0.7537495000000001  49.093023 -19.857459 1.505354  48.0608985 -20.3439615 1.54736625  48.0608995 -20.34392325 0.7941825  48.337971 -21.583568 1.171564  47.3058465 -22.0700705 1.21357625  47.028775 -20.83042575 0.83619475  47.028774 -20.830464 1.5893785  48.337972 -21.58352975 0.41838025  49.093024 -19.85742075 0.75217025  48.0609005 -20.343885 0.04099874999999997  49.093025 -19.8573825 -0.001013500000000001  49.3700965 -21.09702725 0.376368  49.3700975 -21.096989 -0.37681575  49.37009550000001 -21.0970655 1.12955175  49.09302599999999 -19.85734425 -0.75419725  45.9966495 -21.3169665 1.63139075  46.252781 -20.771463 0.45985625  46.5089105 -20.226036 0.79468925  45.7329165 -20.16707325 0.41835075  46.5089115 -20.22599775 0.04150549999999997  45.476786 -20.7125385 0.8367015  46.25278 -20.77150125 1.21304  46.765041 -19.68057075 0.3763385  47.2849055 -20.2849605 0.417844  47.2849045 -20.28499875 1.17102775  47.541035 -19.7395335 0.752677  47.54103600000001 -19.73949525 -0.0005067500000000003  47.28490650000001 -20.28492225 -0.33533975  48.31703 -19.798458 0.37583175  48.317031 -19.79841975 -0.377352  48.31702900000001 -19.79849625 1.1290155  45.22065550000001 -21.25800375 1.25505225  46.25287625 -20.771226 -0.377371  45.47688125 -20.7123015 -0.0005257499999999915  45.22084599999999 -21.25752975 -0.41940225  45.22075075 -21.25776675 0.417825  48.59434025 -24.652855 0.00102975  47.28514325 -23.899751 0.41884425  47.2852385 -23.899514 -0.4183829999999999  46.9873675 -24.489825 -8.549999999999986e-05  44.66674925 -22.393543 1.25447325  45.97594625 -23.146647 0.83665875  45.67817049999999 -23.736721 0.417729  45.97604149999999 -23.14641 -0.0005684999999999914  44.6668445 -22.393306 0.417246  44.3689735 -22.983617 0.8355435  44.667035 -22.392832 -1.2572085  45.97613674999999 -23.146173 -0.83779575  45.67826574999999 -23.736484 -0.41949825  44.66693975 -22.393069 -0.41998125  44.369164 -22.983143 -0.838911  43.773422 -24.163765 -0.002316  44.071293 -23.573454 -0.4206135  44.36906875 -22.98338 -0.001683749999999991  45.38039474999999 -24.326795 -0.00120075  44.07119775 -23.573691 0.41661375  50.193853 -23.725203 7.327472  48.56896275 -23.825948 6.42818525  48.89126974999999 -23.314483 5.833737  48.8879925 -23.11406325 6.740501  47.582132 -22.5029235 6.15353  47.26310225 -23.21480825 5.84121425  47.58540925 -22.70334325 5.246766  47.58868649999999 -22.903763 4.340002  47.2663795 -23.415228 4.93445025  46.9440725 -23.926693 5.5288985  50.19713025 -23.92562275 6.420708  50.2004075 -24.1260425 5.513944  48.57224 -24.02636775 5.52142125  48.894547 -23.51490275 4.926973  49.87482325 -24.43708775 7.01515625  49.8781005 -24.6375075 6.108392250000001  49.5557935 -25.1489725 6.702840500000001  48.249933 -24.53783275 6.115869500000001  50.206962 -24.526882 3.700416  48.57551725 -24.2267875 4.61465725  48.89782425 -23.7153225 4.020209  50.20368474999999 -24.32646225 4.60718  49.884655 -25.038347 4.29486425  49.88137775 -24.83792725 5.201628250000001  49.562348 -25.549812 4.8893125  48.25321025 -24.7382525 5.2091055  48.917734 -26.572742 6.078209  47.93090325 -25.2497175 5.803553750000001  49.24004100000001 -26.061277 5.48376075  49.55907075 -25.34939225 5.7960765  49.23676375 -25.86085725 6.390524750000001  44.970411 -21.280644 4.979588  45.95724175 -22.6036685 5.25424325  46.27954875 -22.0922035 4.659795  46.2762715 -21.89178375 5.566559  48.59047149999999 -23.5504785 7.316872  48.887585 -22.86246525 7.538326250000001  47.284611 -22.93933875 6.729901  47.5817245 -22.2513255 6.951355250000001  47.581317 -21.9997275 7.7491805  47.2842035 -22.68774075 7.527726250000001  46.98708999999999 -23.375754 7.306272  44.67289 -21.71705925 5.555959  44.9700035 -21.029046 5.77741325  45.9787505 -22.328199 6.14293  45.6812295 -22.76461425 6.719301  45.978343 -22.076601 6.94075525  44.969596 -20.777448 6.5752385  44.6724825 -21.46546125 6.35378425  44.375369 -22.1534745 6.13233  46.275864 -21.64018575 6.364384250000001  46.2754565 -21.38858775 7.1622095  44.968781 -20.274252 8.170889000000001  44.6716675 -20.96226525 7.949434750000001  44.9691885 -20.52585 7.37306375  45.9779355 -21.825003 7.7385805  45.680822 -22.51301625 7.51712625  44.672075 -21.21386325 7.151609500000001  44.374554 -21.6502785 7.727980500000001  46.275049 -21.13698975 7.96003475  43.780327 -23.026305 7.285072  44.0774405 -22.33829175 7.50652625  44.3749615 -21.9018765 6.93015525  45.3837085 -23.2010295 7.295672  44.077848 -22.58988975 6.708701  45.989047 -18.707171 5.920243  46.25572325 -19.94341075 5.809401749999999  46.51038175 -19.52454725 5.3258575  46.51038225 -19.3000425 6.0445655  45.734388 -19.35053925 5.685079249999999  45.479729 -19.9939075 5.449915499999999  46.25572275 -20.1679155 5.09069375  47.0317175 -19.892914 6.168888  47.031717 -20.11741875 5.45018  47.0317165 -20.3419235 4.731472  46.76504075 -18.881179 5.56102125  47.286376 -19.4740505 5.685343749999999  47.2863755 -19.69855525 4.96663575  47.54103449999999 -19.055187 5.2017995  46.76504125 -18.65667425 6.279729250000001  47.54103499999999 -18.83068225 5.9205075  47.2863765 -19.24954575 6.404051750000001  47.5410355 -18.6061775 6.639215500000001  49.093024 -18.505184 7.358188  49.0930235 -18.72968875 6.63948  48.31702925 -18.7801855 6.27999375  48.06237075 -19.199049 6.763538  48.06237025 -19.42355375 6.044829999999999  48.31702875 -19.00469025 5.56128575  49.093023 -18.9541935 5.920771999999999  48.31702975 -18.55568075 6.99870175  49.093022 -19.403203 4.483356  48.31702824999999 -19.229195 4.84257775  48.06236925 -19.87256325 4.607414  48.06236975 -19.6480585 5.326122  49.0930225 -19.17869825 5.202064  46.00106375 -20.81128375 4.85553  46.00106425 -20.586779 5.574237999999999  45.22507 -20.63727575 5.2147
[...]
<PointData  Vectors="u"> 
<DataArray  type="Float64"  Name="u"  NumberOfComponents="3" format="ascii">1.4083842584799333e+01 8.5695097350035709e+01 4.0082663972870542e+01  3.3508543331609125e+01 1.2639414855490655e+02 6.1810347825114718e+01  1.2893952204550995e+01 1.1852872993219347e+02 6.3652826773023605e+01  1.3302296794250525e+01 1.2489431450652802e+02 5.5052083786828916e+01  1.5671359303406730e+01 1.4768769106399608e+02 6.4893459556686381e+01  7.0829427398925276e+01 3.2993231039233973e+02 1.0575258265439020e+02  2.2671803019199917e+01 2.5515571369314810e+02 9.4274743659825390e+01  6.2916208617785927e+01 2.3160198554276496e+02 8.7032462145293977e+01  2.4772519737668716e+01 2.3524031167296914e+02 9.6215107027915877e+01  2.2704738015475456e+01 2.1420695233966586e+02 9.4974071649065166e+01  2.8742700360603685e+01 2.1344841422728911e+02 8.4891846113487901e+01  4.3656501310299383e+01 2.0855240197340564e+02 8.5617885640326193e+01  5.7998747939976809e+01 1.9743232970704233e+02 7.9196701603964229e+01  4.2506588506207898e+01 2.1105003153030157e+02 8.1994922012444633e+01  2.2799231014268063e+01 2.2250844699026874e+02 8.0355165105853558e+01  7.3234710723516173e+01 3.2186040692363736e+02 1.3167228937832911e+02  2.8332753511100538e+01 2.3930392266376990e+02 9.6055323630835147e+01  6.6341375489215210e+01 2.2990463539262933e+02 9.2620376951012631e+01  6.8747562673174613e+01 2.9808352066016994e+02 1.1954580254101958e+02  2.0199779452768109e+01 1.8404475829588847e+02 7.3587381057492095e+01  2.2071982608915373e+01 2.0618588615849669e+02 7.1918049191379893e+01  3.5585841012985981e+01 1.9214511937494387e+02 7.6753372377510203e+01  2.0440670613092220e+01 1.9575228192547746e+02 8.9203221179383860e+01  3.1073606362702506e+01 1.8866581473086671e+02 8.5752539154550021e+01  5.1060749694137122e+01 1.6634811243495557e+02 7.0620647487866194e+01  7.3413071478356898e+01 1.1823834018588947e+02 5.6916499055491450e+01  7.4230849870476959e+01 1.2401871074466814e+02 5.7194151594172659e+01  7.3304623452210379e+01 1.2628025069300801e+02 6.1241642818981354e+01  7.4204352115687854e+01 1.2164886306043094e+02 6.1940999077907691e+01  7.3453384259475030e+01 1.3674243289977443e+02 6.6811708714603540e+01  7.5185554775762398e+01 1.3372574361027299e+02 6.1897431790300402e+01  7.6225731257421828e+01 1.3035657676487915e+02 5.7375296349767645e+01  7.4863357760738623e+01 1.1929124890877323e+02 5.7778772570019527e+01  7.4004210052727856e+01 6.3684375353039087e+01 1.8987678838258176e+01  7.8429090381621847e+01 6.6017345093105789e+01 2.0052017262393672e+01  7.8423002752657524e+01 6.8763821350592934e+01 1.8188637960429208e+01  7.8439840281442088e+01 7.0177844648345385e+01 2.1406340097386227e+01  8.3433865171485706e+01 7.7842480074184607e+01 2.4421668502568519e+01  8.2548067864931383e+01 7.2254445122234401e+01 2.2604466439791533e+01  8.3274565625847842e+01 7.6024906634985001e+01 2.1106348396138024e+01  8.3432437449299329e+01 7.4420105285112101e+01 1.7034259099296008e+01  8.3388107828842152e+01 6.8128950999390185e+01 2.1094540794097984e+01  7.8413009289652948e+01 6.7342402621430537e+01 2.3154689205405269e+01  6.9685215081014022e+01 1.4009799606340513e+02 -1.3715960424047480e-02  6.7493107653510990e+01 1.5083902464430486e+02 2.6280692712037723e+00  6.7890410337628353e+01 1.5105642334074997e+02 -2.6375969322950765e+00  6.5084349118303265e+01 1.4887191531625660e+02 2.1654485263362107e+00  5.5399446823990452e+01 1.5826583098027427e+02 5.4343007775581595e+00  6.1692565862695716e+01 1.6256242168672168e+02 5.6572030182767064e+00  6.1550457130312324e+01 1.6283780684225869e+02 -2.4364286524504192e-01  6.8362566854992536e+01 1.6345798394795199e+02 -5.9429077417668230e+00  6.8319485307993133e+01 1.6353326536123640e+02 -1.2967466963917994e-02  6.8363126938678136e+01 1.6361056528678870e+02 5.8909289706302275e+00  2.0281764200075568e+01 1.9757037465629199e+02 1.5529765493911015e+01  3.5742424926945112e+01 2.0638551114681584e+02 1.5563554660724535e+01  3.0998907443166537e+01 2.0693010161456928e+02 5.4115585070949699e+00  5.0385415673447014e+01 1.8040617654275846e+02 9.5348047536409819e+00  6.4754939464376378e+01 1.8191869129541763e+02 1.0100544667362875e+01  6.4717745323693720e+01 1.8233474318169891e+02 2.7948367348298118e+00  5.7242712609197334e+01 2.1467635642768423e+02 -8.8776128529493248e-01  5.6708232593380025e+01 2.1425633886961515e+02 8.4841914661737352e+00  5.8063042876289380e+01 2.1196803938202643e+02 1.6229813794881391e+01  5.1332338396732126e+01 1.8164014927483441e+02 3.1308036911329826e+00  6.4443052000092138e+01 1.8221098610882811e+02 -3.5944513459692216e+00  3.9856903104901640e+01 1.7251520112779048e+02 8.7558307433788620e+00  8.9896249424758494e+01 1.8680486925558012e+02 -1.4343412270959993e+01  9.0333953582151182e+01 1.8666108726923633e+02 -7.2431434223836222e+00  8.2117821862718429e+01 2.0397682242180414e+02 -8.3103354571620702e+00  7.5014329693594988e+01 1.7720659277859130e+02 -3.2907420511459891e+00  7.5624053832442470e+01 1.7742944325752407e+02 3.5041943016256027e+00  8.1380287487465324e+01 2.0512745363929909e+02 -1.4230459666752329e-01  8.9731181143326083e+01 1.8705455281974548e+02 8.4723160300316791e-02  7.6031161281948684e+01 1.7657879450787129e+02 -9.8628491457650078e+00  9.0054958617007117e+01 1.8678468610539645e+02 1.4383263984470956e+01  9.0086279976312113e+01 1.8656426649859284e+02 7.3003182184180542e+00  8.2158061326966916e+01 2.0443109195287687e+02 7.4887227034905299e+00  7.5828783463879063e+01 1.7645867205754681e+02 1.0027238209220137e+01  7.9716143077349173e+01 2.0320432462604543e+02 1.5541590553666257e+01  6.9063867844160839e+01 3.4539140996173722e+02 1.5388988695130501e-01  2.4788504240667102e+01 2.5336731768581129e+02 2.0834175227491812e+01  2.2687684100247786e+01 2.6893204108317616e+02 1.1516153714419486e+01  6.3321113562883525e+01 2.4713277453171006e+02 1.3695033331865544e+01  2.8717462001116832e+01 2.2909053718958944e+02 1.6508317757637386e+01  4.3742970016408506e+01 2.2464885923429497e+02 1.8928995874313021e+01  4.2406863351878066e+01 2.2582830971308400e+02 1.4811639167282515e+01  2.2959237753950678e+01 2.3525253946807780e+02 9.0844447930820937e+00  2.2719829713356653e+01 2.3319145095614778e+02 2.6341234773127759e+01  7.3395134823339347e+01 3.4631705748661170e+02 2.8412422132567446e+01  2.8404982715028883e+01 2.5719150843333756e+02 1.9310001355371405e+01  6.6411647640505080e+01 2.4696282431347717e+02 1.9073929257506354e+01  6.8743425092269419e+01 3.2006838304316153e+02 2.3879512956765630e+01  1.2343933674858741e+02 2.5267302380997469e+02 1.0977962409997703e+01  7.6354286480692238e+01 2.1921228755219531e+02 1.4851998396448945e+01  9.9999039173611223e+01 2.1228858891429894e+02 6.1894903689853775e+00  1.1825173432446277e+02 2.5011707374522169e+02 1.0747817796076092e+01  7.0858742740972289e+01 3.4207440481573889e+02 5.4218300051556739e+01  7.4434242592937807e+01 3.4644403397648915e+02 2.3474448285427357e+01  1.2232906081680862e+02 2.5191448013162184e+02 2.7712185372831108e+01  6.3399691095468214e+01 2.4604217609836010e+02 2.4230995238419720e+01  7.5682233759462875e+01 2.1985711398746813e+02 1.9102024522771725e+01  9.9934300623551664e+01 2.1057305679491773e+02 2.6524748683180498e+01  1.1863123567451223e+02 2.4869982147509228e+02 2.8137168527183501e+01  1.8840878030451854e+01 2.6484719278907517e+02 2.8394330995229002e+01  2.0679885906849549e+01 2.1401631645304738e+02 2.6455725801080565e+01  1.9630590777655648e+01 2.1659355480335154e+02 5.3007495908806250e+00  9.8461305407420397e+01 2.1203904374844473e+02 1.6258866359577585e+01  8.9687843569858501e+01 1.9852878405710888e+02 2.0590619981080931e+01  8.9793972373291268e+01 1.9922947788853912e+02 1.0019285891718047e+01  6.4574849669609875e+01 1.4919039759548227e+02 -1.9783731859475620e+00  5.5166326326974570e+01 1.5857431896420076e+02 6.3974297502695121e-02  6.1569756338998104e+01 1.6260257131700448e+02 -5.6961083824893741e+00  5.5718407305077754e+01 1.5837718130896161e+02 -5.3147900894547355e+00  2.0138502234584969e+01 1.9736419235269966e+02 -1.4675555339604347e+01  3.5698224908723674e+01 2.0617600855692592e+02 -1.5621906163564544e+01  3.1260278951734417e+01 2.0730254192352720e+02 -6.1152895409553922e+00  5.0819176474883889e+01 1.8057070262466939e+02 -9.5712917287616506e+00  6.4701250589894286e+01 1.8169886778559655e+02 -1.0147540374219385e+01  5.6761924543888519e+01 2.1396683755038637e+02 -9.2560546698366331e+00  5.8094099520868880e+01 2.1193228386354915e+02 -1.6189143680977139e+01  5.0822826163171676e+01 1.8187188056579663e+02 -3.8590686493636781e+00  1.7627189752707196e+01 1.8856295258635566e+02 1.4420937654504005e+00  3.0912638113310351e+01 2.0492859238438083e+02 -4.6001461436956403e-01  1.7679024683405764e+01 1.8698559946680217e+02 -2.1833848364286793e-01  3.9493158286736751e+01 1.7166606812615086e+02 -2.6637642290175987e+00  3.8804388190559997e+01 1.7270497597490240e+02 2.9116998946570067e+00  3.9614150790839773e+01 1.7220443791257472e+02 -8.6695997873450850e+00  1.7084539150896326e+01 1.8892127166644127e+02 -2.3095869573934791e+00  7.9679269147621838e+01 2.0325442374898344e+02 -1.5532143034165978e+01  7.6626595508330951e+01 2.2223734613462997e+02 -4.1695583540994718e+00  6.3444358316241619e+01 2.4686507423257001e+02 -1.3303104624891759e+01  1.2355945030392505e+02 2.5296157286198982e+02 -1.1098348996704475e+01  6.4569482222851889e+01 2.5636549678077989e+02 -8.6530500723157677e-01  9.9922894199200030e+01 2.1207980810999612e+02 -6.0806480794444973e+00  7.6401682352291985e+01 2.1903035410231669e+02 -1.4939080378756900e+01  2.2450489056320457e+01 2.7053523319983117e+02 -1.3914112490235457e+01  3.9957974485609718e+01 2.2744254472375513e+02 -3.0266254336388365e+00  4.2573825638328934e+01 2.2564809706790513e+02 -1.4755341759595540e+01  2.2661144799211119e+01 2.3567384322808547e+02 -9.9609445995925032e+00  1.7366257664294690e+01 2.3118256589480583e+02 -2.5711503095663155e+00  3.8433434714889572e+01 2.2824352502807068e+02 1.0648255098221706e+00  1.3078509180364030e+01 2.0672597282087332e+02 1.4433175979557777e+00  1.3666223527947029e+01 2.0468238809130497e+02 -2.7441062277735413e+00  2.2161930234720923e+01 2.1766861591226072e+02 -6.3488613822511457e+00  8.9673508893053963e+01 1.9926596007578837e+02 -9.9360943898676126e+00  7.6806286045043194e+01 2.2261553388733512e+02 3.2308035161719744e+00  1.0479576330815898e+02 2.1078764009818983e+02 -1.9301866553236532e-01  9.1802262843604353e+01 1.9731845411036505e+02 3.7372950087873207e+00  9.1763598333361287e+01 1.9748286079392290e+02 -3.7741700244607870e+00  7.0071420918974141e+01 1.4705602221957093e+02 -9.5054447312456197e-03  7.1007747896082293e+01 1.5777452224788746e+02 -2.6158879337676124e+00  7.0863716653005611e+01 1.5778602130545980e+02 2.7528087722590611e+00  7.3438615539575750e+01 1.5225904746078791e+02 3.8697562830557557e-03  8.9589399131064681e+01 1.7419369114583651e+02 -1.1663008808225729e+01  7.7143947983901711e+01 1.6872355881627567e+02 -6.1003235757978569e+00  7.8455745612839763e+01 1.6138091440784984e+02 -2.6984595382977044e+00  7.7653605740337014e+01 1.6913088216578797e+02 5.4866807761367486e-02  8.7458660939857097e+01 1.7461881793323411e+02 -3.6655803082769740e+00  8.6371697874263162e+01 1.6622349183316248e+02 -7.4176056090595921e+00  8.9671421384797455e+01 1.7420507799949758e+02 1.1712930815330973e+01  7.7113596427104682e+01 1.6882822755160495e+02 6.1073987112876971e+00  7.8483974668156023e+01 1.6136079699591235e+02 2.7047686187239575e+00  8.7464590663175613e+01 1.7456448299806132e+02 3.6351475890889788e+00  8.6379370785795018e+01 1.6623004920798007e+02 7.4460116029847052e+00  8.6033726857599916e+01 1.5496211961325045e+02 2.6993279626054655e-02  8.4579164702775230e+01 1.6095411485995331e+02 4.2782334308159147e+00  8.4369981188827197e+01 1.6551508182543444e+02 9.8727866408964294e-03  7.9310650759003096e+01 1.5467214282882119e+02 1.0046784212787315e-02  8.4579414445861175e+01 1.6094728645571155e+02 -4.2329553525836197e+00  6.9612648056588569e+01 1.3393238819913816e+02 -4.1489048863290201e+01  6.9893455467610195e+01 1.4200510109980658e+02 -3.8264366940080698e+01  6.7603521572226782e+01 1.4684831293842163e+02 -3.6851566411941647e+01  6.8125247377340060e+01 1.4507336747551852e+02 -4.2282910654082336e+01  6.8282226348538060e+01 1.5783934659989905e+02 -4.3170457368861804e+01  7.1117043675484311e+01 1.5287907335994493e+02 -3.8446323519972346e+01  6.8195095485297912e+01 1.5980867258047004e+02 -3.6867415393286798e+01  6.8279663130883577e+01 1.6097921797172231e+02 -3.0513879719663564e+01  7.1052739541248712e+01 1.5423914257190387e+02 -3.2548801618481569e+01  7.3721757076887442e+01 1.4801887322461249e+02 -3.4224588858040789e+01  7.0020941463235800e+01 1.3668012481671161e+02 -3.6638950229578491e+01  6.9993352167634924e+01 1.3843828612822804e+02 -3.1705930920647770e+01  6.9865179161669190e+01 1.4372135380871364e+02 -3.3029882297204381e+01  6.7623747581129379e+01 1.4796715400951911e+02 -3.1073935100380666e+01  7.2673258002223420e+01 1.3384367054207900e+02 -3.7042077048573312e+01  7.1575974160698266e+01 1.3671244743102127e+02 -3.3610358500060478e+01  7.2557147548720749e+01 1.3298522575179805e+02 -3.4157622359261403e+01  7.1873478426352690e+01 1.3957765351908782e+02 -3.4933314861717498e+01  6.9625623789495720e+01 1.3865127791095728e+02 -2.1057995997758734e+01  6.9913501311940635e+01 1.4457121039879661e+02 -2.7581686773868292e+01  6.7422426318823227e+01 1.4878854501602513e+02 -2.5213538556595388e+01  6.9981055925870322e+01 1.3900374886369596e+02 -2.6313769003576638e+01  7.2625782160591655e+01 1.3674929585510651e+02 -2.4774828819503249e+01  7.1572834664687662e+01 1.3779244624723765e+02 -2.9139293312326512e+01  7.2524997223494680e+01 1.3472511911290022e+02 -2.7020176843122773e+01  7.1767687909070162e+01 1.4087188873050016e+02 -2.9608749188036338e+01  7.2740304534486413e+01 1.2601733752985453e+02 -2.8845440260850779e+01  7.2926698292354928e+01 1.3635371117354879e+02 -3.1310923575622510e+01  7.1066080201744612e+01 1.3125433213168589e+02 -2.9135099170454058e+01  7.0644438265999298e+01 1.3648605904778682e+02 -3.1208682590893030e+01  7.1132988119098371e+01 1.3083054750176902e+02 -3.0767719373625891e+01  9.0105072629564930e+01 1.8262245631652314e+02 -4.2737087339127257e+01  7.7847303898943352e+01 1.6401112393476495e+02 -3.8118955900564309e+01  7.5771378430327744e+01 1.7310038060660196e+02 -3.6697169560618725e+01  7.6419777886842397e+01 1.7114929315145031e+02 -4.3460430016340148e+01  7.0075047394019023e+01 1.4036297092383580e+02 -4.3570494769928501e+01  6.7526912314243830e+01 1.4323534244715884e+02 -4.7210889802882711e+01  7.1018122053391807e+01 1.5130785918574199e+02 -4.4504582627857637e+01  6.8382181599719317e+01 1.5605924817832371e+02 -4.8703714239742084e+01  6.8192539197317558e+01 1.5432295784430443e+02 -5.4422988622165846e+01  7.0917858845464053e+01 1.4982494772887455e+02 -4.9653378388214094e+01  7.3425261177530743e+01 1.4528407012933013e+02 -4.5442495006297243e+01  8.9611953039407936e+01 1.6973340008138609e+02 -4.1455431872407750e+01  9.0393365474513871e+01 1.8033679303225171e+02 -4.9404381435826885e+01  7.7103090902608400e+01 1.6285489976475466e+02 -4.4770889842917555e+01  7.8452567576919705e+01 1.5481356059038589e+02 -4.5823511949115542e+01  7.7642565784062981e+01 1.6139382524198072e+02 -5.0749168686986671e+01  8.9770185332672028e+01 1.7846903506125687e+02 -5.6547450436132351e+01  8.7478145037649369e+01 1.6775209600498982e+02 -4.9202756165273620e+01  8.6422691247646682e+01 1.6085878849414405e+02 -4.3086349772409591e+01  7.4980563637564487e+01 1.7009322602792346e+02 -4.9990788011753409e+01  7.5648682379473613e+01 1.6827116383818299e+02 -5.6541971116581848e+01  9.0086540234231876e+01 1.7389608295876181e+02 -7.0091977385389100e+01  8.9652538386523986e+01 1.6269928767917727e+02 -6.3760927870495458e+01  9.0095843666886495e+01 1.7581719040711610e+02 -6.3269972453744337e+01  7.7097745733262357e+01 1.5928036539676094e+02 -5.6454686826693646e+01  7.8383938228148807e+01 1.5309741965315351e+02 -5.1079216393765080e+01  8.7468804727297382e+01 1.6548134287998701e+02 -5.6147301544283415e+01  8.6362788788419792e+01 1.5641011229217307e+02 -5.7260483541488782e+01  7.5826895078265210e+01 1.6540117036170759e+02 -6.2463834650432439e+01  8.6096489445279943e+01 1.4788973079960499e+02 -4.6798688193222141e+01  8.4576342957743094e+01 1.5229116965282904e+02 -5.2643319753829033e+01  8.4374890080122839e+01 1.5793981018866765e+02 -4.9961621569669539e+01  7.9297443770017964e+01 1.4760986298945372e+02 -4.6374990199520610e+01  8.4609500924749952e+01 1.5483982427431107e+02 -4.4507953716560309e+01  7.0816624255556931e+01 3.2988753608755917e+02 -1.0572061685143736e+02  7.7465283160965100e+01 2.1219767230924424e+02 -6.2587388468355648e+01  6.3201674519902575e+01 2.3948721703290113e+02 -6.1418342078043310e+01  6.4697374125934289e+01 2.4525507580032300e+02 -7.5585296852778825e+01  1.2230413791770884e+02 2.4511211600035554e+02 -6.5859212133100158e+01  1.0000876107126967e+02 2.0432944987311970e+02 -5.8433742304985287e+01  7.5573431309514575e+01 2.1464278463948727e+02 -5.2370436999501649e+01  5.7071747470911433e+01 2.0507105183693437e+02 -6.3636091235443331e+01  5.6654504616222660e+01 2.0692900143701561e+02 -5.5412845074657064e+01  5.7953703278574494e+01 2.0718662029354493e+02 -4.8268349616640940e+01  1.8832890709685820e+01 2.5723124907859068e+02 -6.8080814738219772e+01  3.9103306659968190e+01 2.1882783394686845e+02 -6.6058153087540347e+01  4.3639501534682537e+01 2.1916216670081562e+02 -5.2877373066500709e+01  2.2727297916708530e+01 2.2629395554973510e+02 -6.1376529139744534e+01  2.2664108575549442e+01 2.5514474046690665e+02 -9.4237425804084751e+01  1.9023720863598633e+01 2.1931788315418549e+02 -7.0495458031022267e+01  4.0140127689675793e+01 2.1670241041466204e+02 -6.9898765478423982e+01  2.2807610382113520e+01 2.2249529072882916e+02 -8.0336441128305495e+01  2.0186994407342986e+01 1.8403402382501639e+02 -7.3513729207324317e+01  1.7352575241323741e+01 1.8116674834655012e+02 -5.4747905024454653e+01  1.2867596354319781e+01 1.9600647096253576e+02 -5.7666149982496037e+01  3.0852191284987551e+01 1.9580425099923471e+02 -6.6614448484120715e+01  3.0931413639325239e+01 1.9551121528229936e+02 -6.1154153969214839e+01  1.3433440485476618e+01 1.9480298261837476e+02 -6.2784637415672570e+01  1.7697795855205666e+01 1.7865859506468976e+02 -5.5597037864676139e+01  2.2090299993606539e+01 2.0616725976103714e+02 -7.1918478162290015e+01  2.0189211059496994e+01 1.9300676585265160e+02 -4.4947985970638136e+01  2.0468812059181815e+01 2.0718095263510168e+02 -5.8419817327307854e+01  3.5562458676215506e+01 2.0155105439957561e+02 -4.6646822790506789e+01  3.1030960166978680e+01 1.9950182268219669e+02 -5.6209126030324718e+01  1.7402680590274755e+01 1.7933547255413566e+02 -5.7908662376388584e+01  7.9681799243208246e+01 1.9869225162641965e+02 -4.6300612178929647e+01  8.1978305470660757e+01 1.9731790021502786e+02 -5.3536167876634842e+01  8.9770106255806823e+01 1.9327184761325574e+02 -5.0691149480697035e+01  1.4064355216910224e+01 9.3727651689782959e+01 1.2905301360059735e+01  1.2891483396915326e+01 1.3223858779552100e+02 2.5663442584965281e+01  4.9343620232338864e+01 1.1168930557283323e+02 2.2682699968665286e+01  8.7772504757797574e+00 8.0180969953004720e+01 2.1674158667037212e+01  1.3502629907747083e+01 8.8865193300760154e+01 1.9429182841415823e+01  1.0044649308053168e+01 1.2687152732347113e+02 3.0712981486664418e+01  4.4517197993612825e+01 1.0805957574413124e+02 2.4524906675767291e+01  5.6559219810960926e+01 1.2666956564899792e+02 2.5011073172774065e+01  3.1862627945719794e+01 1.3692525532713469e+02 2.6705410042532129e+01  1.5716488030686216e+01 1.5717522248479804e+02 2.9866185308724901e+01  1.4049365866825640e+01 9.0712222013301997e+01 2.6782063249649145e+01  1.3304506461595752e+01 1.3159345685922628e+02 3.5652716305017471e+01  4.7850151700827880e+01 1.0948296958189208e+02 2.8121704377282075e+01  9.1812684998429521e+00 1.2629173211713965e+02 2.7237832116098652e+01  1.1945329321557262e+01 1.5263487099809259e+02 3.5889113964486924e+01  3.086