<?xml version="1.0"?>
<VTKFile type="UnstructuredGrid"  version="0.1"  >
<UnstructuredGrid>
<Piece  NumberOfPoints="4653" NumberOfCells="20561">
<Points>
<DataArray  type="Float64"  NumberOfComponents="3"  format="ascii">52.226008 18.20858 -8.768793000000001  51.4440925 18.3471485 -8.24542825  51.99280299999999 18.88639975 -8.628550000000001  52.226008 18.4844665 -8.06584625  52.226008 18.760353 -7.3628995  51.2108875 19.02496825 -8.10518525  51.4440925 18.623035 -7.542481500000001  51.99280299999999 19.16228625 -7.92560325  51.759598 19.5642195 -8.488306999999999  50.662177 18.485717 -7.722063500000001  52.226008 19.312126 -5.957006  51.2108875 19.57674125 -6.69929175  51.4440925 19.174808 -6.136588  51.4440925 18.8989215 -6.83953475  50.428972 19.16353675 -7.5818205  50.662177 18.7616035 -7.01911675  50.662177 19.03749 -6.31617  50.428972 19.43942325 -6.878873749999999  50.195767 19.8413565 -7.441577499999999  51.99280299999999 19.71405925 -6.51970975  51.2108875 19.30085475 -7.4022385  51.759598 20.1159925 -7.082413499999999  50.9776825 19.9786745 -7.261995499999999  52.226008 19.0362395 -6.65995275  51.99280299999999 19.43817275 -7.222656499999999  51.293188 20.919859 -8.207820999999999  50.7444775 20.38060775 -7.824699249999999  51.526393 20.51792575 -7.645117249999999  50.9776825 19.702788 -7.96494225  51.759598 19.840106 -7.78536025  51.526393 20.24203925 -8.348063999999999  49.098346 18.762854 -6.675334  49.64705650000001 19.30210525 -7.05845575  49.8802615 18.900172 -6.495752  49.8802615 18.6242855 -7.19869875  44.141456 31.037504 -14.973484  42.56218925 30.301231 -15.457732  43.06036 29.453675 -15.6520435  41.4266435 29.6927015 -14.5186475  38.711831 28.347899 -14.063811  39.84737675 28.9564285 -15.0028955  40.3455475 28.1088725 -15.197207  41.979264 27.869846 -16.330603  41.48109325 28.717402 -16.1362915  40.9829225 29.564958 -15.94198  43.28222049999999 29.51754675 -14.94037725  40.567408 28.17274425 -14.48554075  42.422985 27.9975895 -14.9072705  42.2011245 27.93371775 -15.61893675  43.9195955 30.97363225 -15.68515025  43.69773499999999 30.9097605 -16.3968165  42.34032875 30.23735925 -16.16939825  42.8384995 29.38980325 -16.36370975  43.254014 30.782017 -17.820149  42.11846825 30.1734875 -16.8810645  42.616639 29.3259315 -17.075376  43.4758745 30.84588875 -17.10848275  40.704514 24.957675 -14.841057  41.341889 26.4137605 -15.58583  41.5637495 26.47763225 -14.87416375  39.7081725 26.652787 -14.452434  47.403933 28.488107 -8.791752000000001  46.14456025 27.926611 -7.607333000000001  46.951799 29.28927375 -8.4074405  47.40464925000001 28.734985 -7.705777  47.4053655 28.981863 -6.619802  45.69242625 28.72777775 -7.223021500000001  46.1452765 28.173489 -6.521358  46.95251525 29.53615175 -7.3214655  46.499665 30.0904405 -8.023129000000001  44.8851875 27.365115 -6.422914  47.406798 29.475619 -4.447852  45.69385875 29.22153375 -5.051071500000001  46.146709 28.667245 -4.349408  46.14599275 28.420367 -5.435383  44.4330535 28.16628175 -6.038602500000001  44.88590375 27.611993 -5.336939  44.88662 27.858871 -4.250964  44.43376975 28.41315975 -4.9526275  43.9809195 28.9674485 -5.654291000000001  46.95394775 30.02990775 -5.1495155  45.6931425 28.97465575 -6.1370465  46.5010975 30.5841965 -5.851179  45.2410085 29.7758225 -5.752735  47.40608175 29.228741 -5.533827  46.9532315 29.78302975 -6.2354905  45.595397 31.692774 -7.254506  44.78815825 30.33011125 -6.4543985  46.04824725 31.13848525 -6.552842500000001  45.24029225 29.5289445 -6.838710000000001  46.50038125 30.3373185 -6.937154  46.047531 30.89160725 -7.6388175  42.366442 26.242123 -4.054076  43.17368075 27.60478575 -4.8541835  43.626531 27.050497 -4.15252  43.62581475 26.803619 -5.238495  44.143803 32.918944 -10.18174  41.58299024999999 33.79334275 -9.845958  40.448097 32.666319 -10.2498635  42.57274025 32.65529675000001 -9.4714595  43.154053 34.05699 -10.5562385  41.437847 31.528273 -9.875364999999999  42.164303 35.195036 -10.930737  38.731891 30.137602 -9.568989999999999  39.86678424999999 31.26462575 -9.165084499999999  41.0016775 32.3916495 -8.761179  43.43084325 33.91965525000001 -9.81189625  42.44109324999999 35.05770125 -10.18639475  42.7178835 34.9203665 -9.442052500000001  41.8597805 33.656008 -9.101615750000001  43.92571825 33.35063225 -9.624647  43.7076335 33.7823205 -9.067553999999999  42.3546555 33.086985 -8.9143665  43.2127585 34.3513435 -9.25480325  43.271464 34.645697 -7.953368  42.13657075 33.51867325 -8.3572735  42.99467375 34.78303175 -8.69771025  43.48954875 34.21400875 -8.510460999999999  43.278764 33.070907 -13.010139  41.74156925 32.5651125 -12.89411025  42.14204575 32.33758075 -12.14985175  41.462954 33.09614475 -12.37425975  39.647144 33.1213825 -11.7383805  39.92575925 32.59035025 -12.258231  40.32623575 32.3628185 -11.5139725  41.0053275 31.6042545 -11.2895645  40.604851 31.83178625 -12.033823  40.2043745 32.059318 -12.7780815  43.00014875 33.60193925 -12.4902885  42.7215335 34.1329715 -11.970438  41.8634305 32.868613 -11.63000125  41.18433874999999 33.627177 -11.85440925  41.58481525 33.39964525 -11.11015075  40.90572349999999 34.15820925 -11.33455875  39.86860925 30.87092825 -10.42927725  39.18951749999999 31.62949225 -10.65368525  42.44291825 34.66400375 -11.4505875  39.46813275 31.09846 -11.17353575  37.930938 30.5926655 -11.057507  37.129985 31.047729 -12.546024  38.66717975 31.5535235 -12.66205275  38.3885645 32.08455575 -12.14220225  42.152908 33.189598 -16.04939  40.3401875 31.96825 -17.8576345  38.605228 31.935419 -17.241139  40.8961225 32.085894 -16.3213845  41.596973 33.071954 -17.58564  39.161163 32.05306299999999 -15.704889  41.041038 32.95431 -19.12189  36.169418 30.916528 -15.360388  37.9043775 30.949359 -15.9768835  39.639337 30.98219 -16.593379  39.083402 30.864546 -18.129629  37.125766 28.774782 -17.137368  38.3825515 29.878486 -16.8653735  36.647592 29.845655 -16.248878  51.297002 21.901138 -4.995771  50.480692 21.763376 -5.28019  50.47473775 21.56721175 -5.99413225  50.747338 21.116567 -5.41566175  50.197674 20.331996 -5.8355525  49.931028 20.978805 -5.70008075  49.92507375 20.78264075 -6.414023  49.6524735 21.2332855 -6.9924935  49.65842775 21.42944975 -6.27855125  49.664382 21.625614 -5.564609  50.75329225 21.31273125 -4.7017195  49.93698225 21.17496925 -4.9861385  50.20362824999999 20.52816025 -5.12161025  50.2095825 20.7243245 -4.407668  51.02440175 22.35178275 -5.5742415  50.2021375 22.0178565 -6.57260275  50.7518015 22.8024275 -6.152712  50.20809175 22.21402075 -5.8586605  50.206601 23.703717 -7.309653  49.9354915 22.6646655 -6.437131  50.47920125 23.25307225 -6.7311825  49.92953725 22.46850125 -7.15107325  49.381364 20.194234 -6.1199715  49.10430024999999 18.95901825 -5.961391750000001  49.64801 19.547425 -6.255443250000001  49.38731825 20.39039825 -5.40602925  49.65396425 19.74358925 -5.541501  49.1102545 19.1551825 -5.2474495  49.37540975 19.99806975 -6.833913750000001  49.122163 19.547511 -3.819565  49.3932725 20.5865625 -4.692087  49.11620875 19.35134675 -4.53350725  49.6599185 19.9397535 -4.82755875  49.66587275 20.13591775 -4.1136165  47.410649 26.850838 -12.933014  45.277615 27.19790525 -13.25149725  45.692871 26.415529 -13.48217775  46.146473 26.091776 -12.647309  44.882297 25.332714 -12.361604  44.01343900000001 26.43884325 -12.96579225  44.428695 25.656467 -13.19647275  43.975093 25.98022 -14.0313415  43.559837 26.76259625 -13.800661  43.144581 27.5449725 -13.5699805  45.731217 26.87415225 -12.4166285  44.46704099999999 26.11509025 -12.1309235  44.051785 26.8974665 -11.900243  43.598183 27.2212195 -12.73511175  46.957047 27.174591 -13.76788275  46.503445 27.498344 -14.6027515  44.824013 27.52165825 -14.086366  45.239269 26.739282 -14.3170465  45.596241 28.14585 -16.272489  44.370411 27.84541125 -14.92123475  44.785667 27.063035 -15.15191525  46.049843 27.822097 -15.43762025  42.353945 23.81459 -11.790194  41.938689 24.59696625 -11.5595135  42.749263 25.67978125 -12.68008725  43.202865 25.35602825 -11.8452185  42.334007 26.4621575 -12.44940675  42.787609 26.1384045 -11.614538  41.523433 25.3793425 -11.328833  43.164519 24.897405 -12.91076775  43.618121 24.573652 -12.075899  40.692921 26.944095 -10.867472  41.108177 26.16171875 -11.0981525  41.918751 27.24453375 -12.21872625  42.372353 26.92078075 -11.3838575  45.73280425 28.42877225 -8.24879  45.28067025 29.229939 -7.864478500000001  44.4734315 27.86727625 -7.064371  44.0616755 28.3694375 -7.705828  44.37640225 30.8322725 -7.095855500000001  44.0212975 28.668443 -6.6800595  43.5691635 29.46960975 -6.295748000000001  43.1574075 29.971771 -6.937205000000001  44.82853625 30.03110575 -7.480167  43.6095415 29.17060425 -7.3215165  41.954686 26.74428425 -4.695533  43.21405875 27.30578025 -5.879952  42.76192475 28.106947 -5.4956405  41.54293 27.2464455 -5.33699  40.719418 28.250768 -6.619904  41.131174 27.74860675 -5.978447  42.35016874999999 28.60910825 -6.1370975  42.80230275 27.8079415 -6.521409  41.93841275 29.1112695 -6.7785545  42.39054675 28.31010275 -7.162866  44.13264 28.468555 -19.438402  41.56182075 28.632305 -20.52049625  40.42984749999999 28.151615 -19.5206275  42.55829775 27.6471225 -19.82673675  43.136163 29.4537375 -20.1321615  41.4263245 27.1664325 -18.826868  42.139686 30.43892 -20.825921  38.720009 25.86431 -18.215334  39.85198225 26.345 -19.21520275  40.9839555 26.82569 -20.2150715  43.413217 28.790775 -20.4793835  42.41674 29.7759575 -21.173143  42.693794 29.112995 -21.520365  41.83887475 27.9693425 -20.86771825  43.9114555 28.29818375 -20.13250375  43.690271 28.1278125 -20.8266055  42.33711325 27.47675125 -20.5208385  43.1920325 28.62040375 -21.17348525  43.247902 27.78707 -22.214809  42.11592875 27.30638 -21.21494025  42.970848 28.4500325 -21.867587  43.4690865 27.95744125 -21.52070725  44.37330925000001 27.34880625 -15.914631  43.7877525 28.007848 -16.301546  44.009613 28.07171975 -15.58987975  42.56482075 27.21080425 -15.943688  42.78668125 27.274676 -15.23202175  43.1503775 26.5517625 -15.556773  45.23254475 28.8687635 -15.9477
[...]
<PointData  Vectors="u"> 
<DataArray  type="Float64"  Name="u"  NumberOfComponents="3" format="ascii">1.6154923857790550e+01 -8.6711727824041262e+01 4.2898097454893708e+01  1.2706771502322836e+01 -1.2294131352219907e+02 5.0231000718693402e+01  4.9116688565121869e+01 -1.0430827770990075e+02 4.4510997665995092e+01  9.0232333917352339e+00 -7.7799012190674389e+01 2.8447011113728681e+01  1.4978990011879475e+01 -8.5594144183987282e+01 3.3580475074651375e+01  3.1809095289836215e+01 -1.2884882910903178e+02 5.3765386946027462e+01  1.0530809265683184e+01 -1.2362892406237410e+02 4.7465078152583722e+01  4.4920551817937202e+01 -1.0397995764652823e+02 4.1363460526227136e+01  5.5510434995193656e+01 -1.1977525531894452e+02 5.1021369787182486e+01  1.5254745716884205e+01 -1.4554976292464636e+02 6.1014289252992683e+01  1.6139139347568779e+01 -9.2055209777277369e+01 2.9491142604737519e+01  3.1918044935348561e+01 -1.3252161500071782e+02 4.7296789223094727e+01  1.3687743996183864e+01 -1.3554254630142233e+02 4.4946104447187281e+01  1.0027951485777786e+01 -1.1968320074080845e+02 4.8440456325732121e+01  2.7806004332131938e+01 -1.4738975281268392e+02 5.8033004630812506e+01  1.1963914088836171e+01 -1.4653469773235531e+02 5.7349910581863242e+01  1.5999525128512245e+01 -1.5622590091631227e+02 5.1623464162082477e+01  2.8135768433508176e+01 -1.5011366302327318e+02 5.4159533207614615e+01  3.9886256331634250e+01 -1.4869903407428316e+02 5.6049315326513863e+01  4.7505816325935797e+01 -1.0714585885193962e+02 3.7972672591084567e+01  3.1113814249495984e+01 -1.2926465442526492e+02 4.9572964557264562e+01  5.5181539442197334e+01 -1.2234698576102427e+02 4.4528098923587706e+01  4.2253106690902435e+01 -1.3581706997348033e+02 5.0006662019776165e+01  1.0028208245700819e+01 -7.7322339889430083e+01 3.0123011866533290e+01  4.5421558472274533e+01 -1.0558316420639757e+02 4.0368570927615409e+01  6.1830167451699502e+01 -1.2963430726515145e+02 5.1013908330294370e+01  5.0932595553715664e+01 -1.3739050501967262e+02 5.2793573509835795e+01  5.5889939756276476e+01 -1.2817363767175263e+02 4.9489627319813927e+01  4.3997961180787364e+01 -1.3482714208438921e+02 5.4501235595140642e+01  5.3615723123271017e+01 -1.2546736751568287e+02 4.9050065122507903e+01  5.6044912692870952e+01 -1.2749288943390133e+02 5.0367393838740902e+01  2.0153910031239974e+01 -1.8692066068866743e+02 6.6291790727755441e+01  2.7556667237593835e+01 -1.6528210020983386e+02 6.2761365664235761e+01  1.6638631194005956e+01 -1.7757134745915451e+02 5.7251834811329552e+01  1.6527245867467354e+01 -1.6375987857290215e+02 6.9473294365786614e+01  7.3189404642625504e+01 -8.4713230950888573e+01 4.0871381032950019e+01  7.5915506979812719e+01 -8.4843754575324056e+01 4.3269813118128980e+01  7.5817647085810066e+01 -8.6995371873465857e+01 4.6149577608734710e+01  7.7989492067786358e+01 -8.8214861513309899e+01 4.3129677513103957e+01  8.3030538043974573e+01 -9.1510397072245922e+01 4.5369500735682891e+01  8.0172921711390842e+01 -8.7437114833668531e+01 4.5305680713977722e+01  8.0198118275344370e+01 -8.9569423640257114e+01 4.8536497504738506e+01  7.8293919158803277e+01 -8.7922158431654438e+01 5.1467851411967089e+01  7.8113049140818234e+01 -8.5952882591327764e+01 4.8314997725094194e+01  7.8056119763481220e+01 -8.4117234391445109e+01 4.5371152393029782e+01  7.5730525929541699e+01 -8.9106421747569911e+01 4.5159574524650111e+01  8.0007320037098637e+01 -9.1857180198314794e+01 4.7243820324022543e+01  7.8172420959157805e+01 -9.2600469436311215e+01 4.9205209027861564e+01  7.8100436185063444e+01 -9.0371804217269670e+01 5.0312350572810679e+01  7.3020503827804092e+01 -8.2349985201411044e+01 4.2386863761814126e+01  7.3124641935693205e+01 -8.1093098611422604e+01 4.3802050692021901e+01  7.5874944647000746e+01 -8.2880698903651194e+01 4.4265442591816907e+01  7.5759828774115988e+01 -8.4840212118966051e+01 4.7191769483952854e+01  7.2805483947257144e+01 -7.6702210398543897e+01 4.4322436347336371e+01  7.5915525000596972e+01 -8.0938856191542754e+01 4.5303187503705956e+01  7.5745853682325645e+01 -8.2762123976375108e+01 4.8178586812883594e+01  7.2148909095091184e+01 -7.9028295612224966e+01 4.4730900540368509e+01  8.5044223868835715e+01 -1.0000264322377539e+02 5.9374157116506979e+01  8.1088115696782154e+01 -9.3262725451057477e+01 5.4903361045878675e+01  8.0806191780963886e+01 -9.6165444063232769e+01 5.4141919014845620e+01  8.2733701737332638e+01 -9.4081555539007056e+01 5.2688205712523953e+01  7.3233516714988014e+01 -1.1053448134887557e+02 3.4078956061560149e+01  7.5924319964272286e+01 -1.1705469016392837e+02 3.1871433938749206e+01  7.5622007057767561e+01 -1.0882228142141604e+02 2.9717589671548126e+01  7.3806578261718627e+01 -1.1312166843732791e+02 3.0435852657356527e+01  7.4429791467343307e+01 -1.1489398829842851e+02 2.6257887467778851e+01  7.6143476688035946e+01 -1.1415003387199147e+02 2.8631102418243856e+01  7.6097466448470414e+01 -1.1855792573338279e+02 2.7452173374839820e+01  7.4861115221776473e+01 -1.1169740434464087e+02 2.7414959308856357e+01  7.4741944693965891e+01 -1.0774435640422290e+02 2.7207620892620085e+01  7.8152366295847344e+01 -1.2214000719837368e+02 2.8671414339280918e+01  7.3344929647043571e+01 -1.1445953971263930e+02 1.7162095783366361e+01  7.6371513088625960e+01 -1.1568967695057889e+02 1.9985112317961441e+01  7.5998021196749221e+01 -1.1978622149158562e+02 1.8213237647953544e+01  7.5956135553668972e+01 -1.1923805364723407e+02 2.2802380635867600e+01  7.8357099691022725e+01 -1.1843583496125133e+02 2.5385188657458620e+01  7.8156568755633813e+01 -1.2314023190165337e+02 2.3794540498021988e+01  7.8077978414218634e+01 -1.2361167642438605e+02 1.8863802439266419e+01  7.8234823196300411e+01 -1.1920813750467943e+02 2.0784103813532159e+01  7.8318992499482690e+01 -1.1477068881876419e+02 2.2402379730737721e+01  7.5531219459547330e+01 -1.1100357250627746e+02 2.0552227848404243e+01  7.6141402224970506e+01 -1.1517975408428345e+02 2.4438254649797763e+01  7.4659545946583492e+01 -1.0893182333749773e+02 2.2322497800924317e+01  7.6233011314215901e+01 -1.1186524537067973e+02 2.1731169256892230e+01  7.3854214070114367e+01 -1.1509156335827400e+02 2.1713746973204863e+01  7.4876839609537043e+01 -1.1253434714905006e+02 2.3829415158543771e+01  7.2656977146418640e+01 -1.0053502253237629e+02 2.2996156264471317e+01  7.5974740455520916e+01 -1.0805162557535083e+02 2.2923769173581807e+01  7.2871852628731631e+01 -1.0573025062827705e+02 2.3670548965183684e+01  7.6019751871533472e+01 -1.1123535578550408e+02 2.5726196932791353e+01  7.3329970084821625e+01 -1.1074681862372194e+02 2.5319880889706688e+01  7.2967992868446643e+01 -1.0545662194512332e+02 2.4629107750811844e+01  8.4774509767292813e+01 -1.3294003117642072e+02 2.0598353935686138e+01  8.0944374490981048e+01 -1.2252703252445211e+02 2.1580174815491880e+01  8.0752378544359630e+01 -1.2751784284086851e+02 1.9582902674937824e+01  8.0785435455948019e+01 -1.2705714624851454e+02 2.4872279362862077e+01  7.3181032323190465e+01 -8.9877658252942950e+01 2.7801365411989600e+01  7.5959299170283956e+01 -8.6406272961263596e+01 2.5154858666395917e+01  7.8094441602081574e+01 -8.8247510603337332e+01 2.7678627709679223e+01  7.5914080680772400e+01 -9.1518212705110585e+01 2.6565858794914689e+01  7.4229750497543151e+01 -8.6441086740100786e+01 2.6824072869565793e+01  7.7988130601008450e+01 -9.3783903478283307e+01 2.9362729392828992e+01  7.3917437707531676e+01 -8.0398995324624224e+01 2.4925291605578593e+01  8.3037392083771437e+01 -9.7608793744220179e+01 3.0987522352020115e+01  8.0291634761993848e+01 -9.4817489978672072e+01 2.7885294793591761e+01  7.8140616770836260e+01 -9.2469158653942671e+01 2.5018285698968459e+01  7.4731344584163949e+01 -8.7298142577974474e+01 2.4960616579601645e+01  7.3435738483070168e+01 -8.2368849942111993e+01 2.4289204072220592e+01  7.4066642444822989e+01 -8.4144463429621254e+01 2.3295793895071746e+01  7.5995694604707111e+01 -8.8155945517027348e+01 2.3823410196789521e+01  7.3016067499317501e+01 -8.9119443626422566e+01 2.5073986782795078e+01  7.3173839304880744e+01 -8.9185566254567689e+01 2.3210224263871734e+01  7.5890429438714406e+01 -9.0801608696762059e+01 2.4512819015125178e+01  7.4084689401603953e+01 -8.6622237869953295e+01 2.3200033236647801e+01  7.2994108743855747e+01 -8.6476064266892493e+01 1.9830755269554849e+01  7.5894089710781003e+01 -9.0133862155438678e+01 2.2468921786669235e+01  7.4095460750780404e+01 -8.4746189689265563e+01 2.1740392847942157e+01  7.2187525402934909e+01 -8.8298422216594332e+01 2.1151777414385016e+01  7.2836562076157279e+01 -8.2579550010600187e+01 3.2409153093954345e+01  7.6005596064443921e+01 -8.4192629841135172e+01 3.3318434289543710e+01  7.5923312044113686e+01 -8.6949634083927279e+01 3.2689199244478445e+01  7.6096848354380029e+01 -8.3643000398189102e+01 3.1258475622524838e+01  7.8236276469239655e+01 -8.3457401707301671e+01 2.9564260502817842e+01  7.8173351212037133e+01 -8.4157301526552018e+01 3.1647144033235950e+01  7.8082005559721580e+01 -8.6737475567514977e+01 3.0842015779096037e+01  7.8057612533207589e+01 -9.0145081981818620e+01 3.2216087349037892e+01  7.8107793157071740e+01 -8.7447173698903569e+01 3.3055498700607956e+01  7.8152192029971886e+01 -8.4832048776983697e+01 3.3842484890835699e+01  7.4083543705999588e+01 -8.2171327622344222e+01 2.9959757090543118e+01  7.4070626787479398e+01 -8.2519366386081003e+01 2.8337273017221850e+01  7.5984959138569110e+01 -8.6076983489158920e+01 3.0454655925426721e+01  7.6062374600643864e+01 -8.2911081795425616e+01 2.9209678608434913e+01  7.5984021755101978e+01 -8.5398661529404635e+01 2.8419602427613501e+01  7.6108391740231141e+01 -8.2120690943511917e+01 2.7333651374973233e+01  8.0173324503369884e+01 -9.3450760352939810e+01 3.1536203420464837e+01  8.0608205843386301e+01 -8.9777596778282486e+01 3.0014565306628040e+01  7.3192449068025354e+01 -8.1675824439097212e+01 2.6453940855499905e+01  8.0124392060985670e+01 -9.0684359533533652e+01 3.2575210261926067e+01  8.2538553400769459e+01 -9.2189287365648994e+01 3.1412022445035287e+01  8.3039144427543306e+01 -8.6339600708664804e+01 3.4842688122277984e+01  8.0306784715632901e+01 -8.5390931174786800e+01 3.4264675030024151e+01  8.0419253448781930e+01 -8.4764789630428069e+01 3.1980172300660357e+01  7.3911627352650314e+01 -7.5789315994543813e+01 3.6621886641610963e+01  7.6022700298588319e+01 -7.3327329220368512e+01 4.1006772306439984e+01  7.8250086140858528e+01 -7.3364548400109484e+01 3.9579587094421186e+01  7.6105263887508073e+01 -7.7060531959499045e+01 3.9286384837003411e+01  7.3999558369204252e+01 -7.2355570664353777e+01 3.9182466165463111e+01  7.8184452763806632e+01 -7.7173229325209462e+01 3.7799194725498189e+01  7.3965553206741589e+01 -6.8769792087100626e+01 3.9796268492660367e+01  8.3476772616210027e+01 -7.8455411826101411e+01 3.9005502644551925e+01  8.0399978274048451e+01 -7.8452371213636795e+01 4.0534957081050813e+01  7.8247809211619725e+01 -7.8013870153078386e+01 4.1766183786193764e+01  7.8275465631108872e+01 -7.3738635433801093e+01 4.3307962382264421e+01  8.3045043822405788e+01 -7.9989578949403864e+01 4.7584770156785652e+01  8.0435502162906189e+01 -7.8901663186782471e+01 4.4434552315019289e+01  8.3365064760261646e+01 -7.8916927330610520e+01 4.3586951959250371e+01  6.1817752725785411e+01 -1.3573851719818856e+02 3.1144778451305491e+01  5.7552575787285633e+01 -1.4483088345403806e+02 3.5067077985381800e+01  5.6997873858379776e+01 -1.4368745526999268e+02 3.9983446455297965e+01  5.0652638776640877e+01 -1.4253581561002170e+02 3.6518263440865269e+01  3.9008464183476107e+01 -1.5272440236013227e+02 4.3631996075103693e+01  4.8339684979126986e+01 -1.5325393654932586e+02 4.1561311264638604e+01  4.8392940324040673e+01 -1.5199839896099536e+02 4.6918981775193600e+01  5.5547656245691272e+01 -1.5031159135720881e+02 4.9384636113993075e+01  5.5143078299307888e+01 -1.5205666449286537e+02 4.4600101993605655e+01  5.5216131806757694e+01 -1.5330166915033251e+02 3.9418191380907984e+01  5.0894807102753468e+01 -1.4359340474246787e+02 3.1744958424883350e+01  4.8320015858612400e+01 -1.5444716925242182e+02 3.6645709930436858e+01  3.9047679231020233e+01 -1.5354278349654942e+02 3.8340690117797116e+01  3.9848751140514715e+01 -1.5515145291997419e+02 3.3309478422422075e+01  6.6500059281969456e+01 -1.3784249217372854e+02 3.6005347539985763e+01  6.1532173620676005e+01 -1.4369977468533685e+02 4.2948130484056044e+01  6.7645994562036734e+01 -1.3923931722427147e+02 3.9252581431628776e+01  6.2238895733072304e+01 -1.4453706319005786e+02 3.8573865542844615e+01  6.9433512393902987e+01 -1.3393528446842129e+02 4.1219016900346524e+01  6.5088220733368289e+01 -1.4314912572204005e+02 4.0969611759873750e+01  6.6394478385275093e+01 -1.3816693458059467e+02 4.1717969687672458e+01  6.4404125556217267e+01 -1.4206197380183633e+02 4.5032422613699900e+01  3.9595229070138330e+01 -1.6449925737262274e+02 4.9240490246371017e+01  1.7717107581450378e+01 -1.8281080219060536e+02 4.8517354779084364e+01  2.9671164239425828e+01 -1.6753087193241765e+02 5.0083435618453535e+01  3.8604234550274846e+01 -1.6657244883557655e+02 4.4195050044051619e+01  2.9375981371437231e+01 -1.6591395704559639e+02 4.6516406761298960e+01  1.7902791432287792e+01 -1.8070820051363151e+02 4.9659641469871900e+01  3.9808717987190256e+01 -1.6370349444977725e+02 5.5479778456128827e+01  2.0176648834624523e+01 -1.9408552324646976e+02 3.7860455168428729e+01  3.9533085933578448e+01 -1.6758329812399165e+02 3.8910988439518214e+01  1.7632220197901290e+01 -1.8197783117313736e+02 5.1461485441038583e+01  2.9907793147495283e+01 -1.6774860479334762e+02 4.3218085967592586e+01  2.7498393396205085e+01 -1.7237224785248773e+02 3.7365706407042786e+01  7.3279362278193076e+01 -1.0422752082291792e+02 5.0205851118408702e+01  7.6568014116515229e+01 -1.0254893784097074e+02 5.0017824759472710e+01  7.6372180784777612e+01 -1.0456969131399271e+02 5.3366519856075904e+01  7.5980091957753004e+01 -1.0902626315420490e+02 5.2855234616530126e+01  7.8087244318749740e+01 -1.1232042701577306e+02 5.4808517668660286e+01  7.8293413479747599e+01 -1.0541724942013522e+02 5.1709720837620871e+01  7.8223889209145099e+01 -1.0755306189474723e+02 5.5324863871128017e+01  7.8310310057893659e+01 -1.0282343882314861e+02 5.5528653634281063e+01  7.8276896159614282e+01 -1.0095973203622373e+02 5.2048927027786071e+01  7.8261616672768753e+01 -9.8885723290429880e+01 4.8708495314443347e+01  7.6353903858198834e+01 -1.0677406587685030e+02 4.9392118339916884e+01  7.8220868949451699e+01 -1.1000114887625128e+02 5.1092497373102276e+01  7.8317647946085728e+01 -1.0747151776081509e+02 4.7547769218598653e+01  7.8291416639326030e+01 -1.0317455674852960e+02 4.8280219858701521e+01  7.5528863005912200e+01 -1.0005545011200974e+02 5.2362423049043258e+01  7.4631356076497482e+01 -9.7535727710443879e+01 5.3443347179258971e+01  7.6259270287553008e+01 -9.8559966759921153e+01 5.0529690570423028e+01  7.6208650034820550e+01 -1.0038799022587311e+02 5.3882684492857535e+01  7.2671825848641433e+01 -8.9281031570137188e+01 5.1574329558998940e+01  7.5983649973091943e+01 -9.4539000622863583e+01 5.0630307960154454e+01  7.5957762416833845e+01 -9.6376774835352961e+01 5.3865126484625748e+01  7.2841841689053510e+01 -9.4077160158154754e+01 5.3772559831385607e+01  8.4897962460391511e+01 -1.2047676972711476e+02 5.9632778894465339e+01  8.5320797883621694e+01 -1.1502270027329281e+02 5.5803139210017321e+01  8.0993111593909518e+01 -1.0788936643042068e+02 5.3293596285991178e+01  8.0915027100716216e+01 -1.1301393282116723e+02 5.2738646527146209e+01  8.0838628448967228e+01 -1.0570784946274495e+02 4.9772585214964465e+01  8.0766656054219752e+01 -1.1039958105927541e+02 4.9140911058957350e+01  8.3185169710644075e+01 -1.1238096837774387e+02 5.1869783073440971e+01  8.0942526654139002e+01 -1.1031963455004637e+02 5.7268345299616911e+01  8.0697454190650419e+01 -1.1569361339462061e+02 5.6860199309602287e+01  8.4979763056975997e+01 -1.0756058726436027e+02 4.3412293292252123e+01  8.2284073292298800e+01 -1.1196533656040521e+02 4.8851525286879983e+01  8.0667992589151410e+01 -1.0336895072049626e+02 4.6315290650021076e+01  8.0520712627674570e+01 -1.0794771428907158e+02 4.5632536739324266e+01  7.6351799750198609e+01 -1.1298810612224838e+02 3.2845505849031426e+01  7.6276543807200895e+01 -1.1032665704882373e+02 2.9568842835419552e+01  7.8349223985302132e+01 -1.1774524879463941e+02 2.9862940225870371e+01  7.8319789152033294e+01 -1.1349643440905334e+02 3.0831225289146243e+01  7.6034495532572663e+01 -1.0433704713204827e+02 2.4018752849185827e+01  7.8409226023891208e+01 -1.1432467082642459e+02 2.6634424207144779e+01  7.8351512830364371e+01 -1.1089835341104616e+02 2.3702067355436149e+01  7.8208758225989911e+01 -1.0708640255698288e+02 2.4781637369849804e+01  7.6011663482802149e+01 -1.0749172140505394e+02 2.6813413118181405e+01  7.8355689502096382e+01 -1.1030995036836113e+02 2.7680559257994819e+01  8.5400412416818298e+01 -1.2639187003524172e+02 2.0565947578284710e+01  8.0761175413656133e+01 -1.2241098931135335e+02 2.6335812975329649e+01  8.0790997436934234e+01 -1.1838050544563571e+02 2.3072862591700236e+01  8.3220338041415346e+01 -1.2197564108322877e+02 2.2304499814902599e+01  8.5001306501681498e+01 -1.1310456913678226e+02 2.6507727579910320e+01  8.2340861821846332e+01 -1.1989254121409866e+02 2.4543228172272865e+01  8.0549042483303353e+01 -1.1438398302067043e+02 2.4565113013509087e+01  8.0461378303826493e+01 -1.1799491409349770e+02 2.7671592432265300e+01  8.0433945438214295e+01 -1.1041063310666199e+02 2.5699464543534940e+01  8.0536159773316527e+01 -1.1377437472252136e+02 2.8769262547877428e+01  7.3196499018108341e+01 -7.7604098014538692e+01 5.3008936339545450e+01  7.5989246801753922e+01 -7.3042089750870460e+01 5.2373317680892406e+01  7.8082148062500110e+01 -7.5922310957185744e+01 5.2640130693150596e+01  7.5893111025810157e+01 -7.7386762486323164e+01 5.5460637034953251e+01  7.4229349831071360e+01 -7.4639299181104164e+01 5.1027815439756061e+01  7.7992272269990977e+01 -8.0698245409173524e+01 5.5949965717106068e+01  7.3909529611411074e+01 -6.9409555308137286e+01 4.7468936786485102e+01  8.3047026043623120e+01 -8.3541009058817011e+01 5.8824780699491463e+01  8.0192312112365812e+01 -7.9554337194254842e+01 5.8048341618014717e+01  7.8059579996691156e+01 -7.6306893525090516e+01 5.7524251377922390e+01  7.4673263292572813e+01 -7.3761504474711188e+01 5.2875287497166340e+01  7.3164629736171477e+01 -7.0109701786056718e+01 4.9270780636207078e+01  7.4008276439864204e+01 -7.0379544196274978e+01 5.1284695437938552e+01  7.5988989700434473e+01 -7.3070205932678789e+01 5.4534198897192660e+01  7.2986247555277188e+01 -7.4998757657658743e+01 5.4091199212097216e+01  7.3164478032970720e+01 -7.3545093341947847e+01 5.5340803049487178e+01  7.5851430788735030e+01 -7.5286065284771766e+01 5.6205965948048124e+01  7.4014661812887311e+01 -7.1926362312939077e+01 5.3379293856998956e+01  7.2772651626218760e+01 -6.9319625413862425e+01 5.5418646100689706e+01  7.5909710167558742e+01 -7.3204856120226225e+01 5.6887157454832341e+01  7.4056794445455566e+01 -6.9539720848581069e+01 5.2772240528622291e+01  7.2215910333810186e+01 -7.1405444536426899e+01 5.5994059819965408e+01  7.6034500261548303e+01 -9.2505787771668324e+01 5.3837548085226963e+01  7.6130160475680711e+01 -8.8963258021734916e+01 5.1809771829962443e+01  7.6132227779673215e+01 -9.1424579423542042e+01 5.0824308412223914e+01  7.7990724978180026e+01 -9.1326083567094145e+01 5.3588331819854133e+01  7.8090051867484632e+01 -9.3774992192238940e+01 5.2362888404163549e+01  7.8210039035922975e+01 -9.4799081420613092e+01 5.5530810443869861e+01  7.4110905698697479e+01 -8.8756476872713279e+01 4.7534906807037245e+01  7.5974416917814011e+01 -8.8003177571098462e+01 4.8968605828366016e+01  7.5913881655875642e+01 -9.0344392673815548e+01 4.7827404591732893e+01  7.3637407418369847e+01 -8.8668632012914685e+01 4.5293004182211220e+01  7.6282468782680624e+01 -8.5850745336726874e+01 4.9692838607188037e+01  7.4928202454833112e+01 -8.6274598846440625e+01 4.7185983596916877e+01  7.5869885641766530e+01 -8.5828846745075793e+01 4.9987399152851353e+01  7.4536866564058485