<?xml version="1.0"?>
<VTKFile type="UnstructuredGrid"  version="0.1"  >
<UnstructuredGrid>
<Piece  NumberOfPoints="5242" NumberOfCells="20352">
<Points>
<DataArray  type="Float64"  NumberOfComponents="3"  format="ascii">-25.239911 -24.08747 43.803432  -21.6686365 -22.6669505 42.70525  -22.9306035 -23.425443 45.3622555  -23.73629 -24.612647 44.317103  -24.4342245 -22.900266 44.8485845  -23.628538 -21.713062 45.893737  -22.232669 -25.137824 44.830774  -20.803665 -21.516462 43.7105625  -22.366571 -20.9545695 43.2367315  -22.065632 -22.2749545 46.36756800000001  -21.3676975 -23.9873355 45.8360865  -20.502726 -22.836847 46.841399  -21.104604 -20.196077 40.579726  -22.475967 -23.8875965 41.594702  -24.531781 -25.7608375 43.207807  -23.823651 -27.434205 42.612182  -23.02816 -26.2860145 43.721478  -21.7688895 -25.610771 40.962615  -20.9733985 -24.4625805 42.071911  -19.714128 -23.787337 39.313048  -13.924031 -24.56825 48.358272  -12.071611 -24.519848 45.3729825  -12.3123945 -24.6777375 48.71017399999999  -12.9540105 -26.0306775 47.8250295  -11.98399 -27.493105 47.291787  -10.4599745 -24.6293355 45.7248845  -11.1015905 -25.9822755 44.83974  -11.342374 -26.140165 48.17693149999999  -10.700758 -24.787225 49.062076  -10.219191 -24.471446 42.387693  -19.110931 -26.056109 45.736763  -17.2119455 -26.736463 44.3061645  -16.5475455 -25.057353 43.638716  -17.9864315 -25.4752655 42.843009  -16.861932 -24.894422 39.949255  -16.087446 -26.1556195 41.4124105  -15.423046 -24.4765095 40.744962  -13.98416 -24.058597 41.540669  -14.64856 -25.737707 42.2081175  -15.31296 -27.416817 42.875566  -17.330295 -26.7816635 45.9852645  -15.549659 -27.507218 46.233766  -15.4313095 -27.4620175 44.554666  -14.7669095 -25.7829075 43.88721750000001  -18.605424 -27.428279 45.11094850000001  -18.099917 -28.800449 44.485134  -16.7064385 -28.108633 43.68035  -17.4809245 -26.8474355 42.21719450000001  -18.423523 -23.675553 43.6767535  -17.736115 -21.294997 41.616744  -15.8601375 -22.676797 41.5787065  -17.2990235 -23.0947095 40.7829995  -16.824788 -28.1538335 45.35945  -14.468446 -25.838872 40.222831  -15.907332 -26.2567845 39.427124  -14.952732 -27.619147 38.904993  -15.132846 -27.517982 40.8902795  -16.5263245 -28.209798 41.6950635  -8.736791999999999 -27.313413 48.100374  -6.152974 -25.424928 46.0844805  -7.2758185 -24.5214075 46.405513  -7.735716 -25.7255165 45.6836095  -7.15405 -27.0128245 48.501245  -8.276894499999999 -26.109304 48.8222775  -7.816997 -24.905195 49.544181  -6.6941525 -25.8087155 49.2231485  -5.571308 -26.712236 48.902116  -6.73464 -24.13762 43.266845  -9.902760000000001 -27.201167 44.3684245  -11.524897 -27.429283 43.821256  -10.7851595 -28.7119965 46.8204715  -12.4072965 -28.9401125 46.273303  -12.830603 -30.38712 45.254819  -11.208466 -30.159004 45.8019875  -9.586328999999999 -29.930888 46.349156  -12.974194 -22.8682575 46.01557  -13.9540955 -24.3134235 44.9494705  -14.425332 -22.5687235 45.7087885  -14.926633 -20.569197 43.059305  -13.0042585 -22.613431 42.6067685  -13.475495 -20.868731 43.3660865  -14.4553965 -22.313897 42.299987  -12.024357 -21.168265 43.672868  -20.1199605 -20.061806 44.70221100000001  -21.6828665 -19.4999135 44.22838  -20.4208995 -18.741421 41.5713745  -19.737195 -17.286765 42.563023  -18.6274455 -20.2563415 45.254903  -19.1194205 -22.065922 44.2290715  -18.24468 -17.4813005 43.115715  -18.736655 -19.290881 42.0898835  -17.24414 -19.4854165 42.6425755  -16.752165 -17.675836 43.668407  -19.4203595 -20.745537 41.098235  -13.4073815 -27.2228585 43.397744  -12.984075 -25.775851 44.416228  -12.1016755 -24.2650215 41.964181  -14.736845 -26.037734 47.296019  -13.7668245 -27.5001615 46.7627765  -8.348084999999999 -23.0835965 46.9592925  -8.717699 -24.4624225 46.1644605  -9.789965500000001 -23.0246115 46.71823999999999  -9.258877500000001 -24.84621 49.3031285  -8.879173 -21.261998 44.374404  -7.8069065 -22.699809 43.8206245  -9.718775000000001 -26.050319 48.581225  -8.4769155 -24.304533 42.827269  -9.549182 -22.866722 43.3810485  -9.4779915 -25.8924295 45.2440335  -10.360391 -27.403259 47.6960805  -9.1615605 -28.6221505 47.224765  -8.160484499999999 -27.034254 44.80800050000001  -19.984392 -23.2164105 43.223759  -19.4125295 -24.921723 42.5249055  -18.28803 -24.3408795 39.6311515  -18.7251215 -22.541167 40.464896  -20.2947155 -26.0114945 41.4680445  -21.553986 -26.686738 44.2269075  -20.6718 -25.5969665 45.2837685  -20.875303 -28.235652 43.623041  -19.993117 -27.1458805 44.679902  -18.8686175 -26.565037 41.786148  -19.5267215 -27.683436 40.7419995  -18.946134 -25.4592785 38.587003  -18.17814 -27.13122 37.860958  -17.520036 -26.012821 38.9051065  -17.018782 -23.312653 44.398034  -17.7146795 -21.703022 44.950352  -19.8068285 -24.446478 46.289081  -16.331374 -20.932097 42.3380245  -18.8657615 -23.363507 47.23471050000001  -18.169864 -24.973138 46.68239250000001  -17.228797 -23.890167 47.628022  -16.077715 -22.229682 45.34366350000001  -15.6064785 -23.974382 44.5843455  -8.692553499999999 -28.801179 43.6286045  -7.266709000000001 -25.904545 42.08744900000001  -9.0089845 -26.071458 41.647873  -7.798778 -27.67147 40.908053  -20.409366 -21.991707 39.946387  -16.389228 -25.6986925 46.930894  -15.576414 -24.2292085 47.993147  -14.190131 -28.947169 45.7442925  -18.1390285 -27.9658345 41.173046  -19.48761 -28.5180505 44.0540875  -13.4547855 -27.524217 41.450356  -12.7903855 -25.845107 40.7829075  -13.2746715 -27.625382 39.4650695  -11.596611 -27.631617 40.025146  -15.920365 -30.913824 43.896213  -15.6166625 -29.1653205 43.3858895  -13.758488 -29.2727205 41.9606795  -15.4365485 -29.2664855 41.400603  -15.735012 -29.210521 45.0649895  -17.010141 -29.8571365 44.1906735  -22.227862 -30.633569 41.273558  -21.0478525 -27.174644 40.303225  -20.203001 -28.8823945 39.567258  -21.5515825 -29.4346105 42.4482995  -11.121774 -22.8198555 43.0302805  -10.59147 -28.7812525 43.187151  -9.697694500000001 -27.6515435 40.4665995  -10.907901 -26.0515315 41.2064195  -22.349477 -27.8349285 43.1176115  -12.213607 -29.0093685 42.6399825  -20.003809 -29.655037 43.0502515  -19.132315 -31.074422 42.477462  -18.6552275 -29.102821 40.16921  -18.616116 -29.9374355 43.481298  -20.6800885 -30.8539955 41.87551000000001  -11.3625575 -22.977745 46.367472  -10.451765 -21.2151315 44.023636  -17.0425235 -29.3467845 40.6912275  -16.565436 -27.3751835 38.3829755  -17.52634 -30.994123 43.1868375  -15.839399 -19.1225165 43.363856  -14.0717815 -28.9019685 44.06519249999999  -14.375484 -30.650472 44.575516  -6.38484 -29.432598 47.21182  -4.872836 -26.5724105 45.5691375  -5.279602 -27.9325915 44.7239895  -6.55974 -26.785109 45.2393325  -5.978073999999999 -28.072417 48.056968  -5.454502 -25.2851025 42.751502  -4.174364 -26.432585 42.236159  -3.266579 -26.109534 45.98360700000001  -4.4575305 -25.0442725 46.487207  -4.3803565 -27.7774975 48.398516  -3.189405 -28.842759 47.894916  -3.6818845 -27.637672 45.0655375  -3.7590585 -24.904447 43.1542285  -3.343753 -23.376309 44.072298  -5.0391965 -23.7569645 43.6695715  0.118056 -28.265479 48.343032  -0.6723475 -28.370771 44.7458475  1.169926 -28.713006 44.477795  -0.1879085 -27.009908 45.5985445  -0.366383 -29.626342 47.490335  1.654365 -27.352143 45.330492  -0.850822 -30.987205 46.637638  3.190674 -26.438807 42.317952  1.3484005 -26.096572 42.5860045  -0.493873 -25.754337 42.854057  2.415865 -30.506044 46.899306  2.8032695 -28.4724255 44.608629  1.2669605 -29.3857615 47.621169  0.7825215000000001 -30.7466245 46.768472  0.391337 -30.1212495 43.5762835  2.0246805 -29.880669 43.7071175  2.412085 -27.8470505 41.4164405  1.633496 -29.255294 40.514929  0.5698115 -27.5048155 41.684493  -2.42663 -26.007081 49.535272  -1.4602515 -25.880709 46.1946645  -1.154287 -27.13628 48.939152  -2.8080175 -27.42492 48.715094  -1.841639 -27.298548 45.3744865  -1.5356745 -28.554119 48.118974  3.3654555 -27.1420035 45.3876345  2.978051 -29.175622 47.67831150000001  3.540237 -27.8452 48.457317  1.8291465 -28.0553395 48.40017450000001  -7.560815999999999 -28.3730055 47.656097  6.941905 -27.457441 48.310443  4.227537 -25.7955855 46.0917165  5.0662895 -26.948124 45.3141975  5.928371 -25.601706 46.0182795  5.241071 -27.6513205 48.38388  4.914837 -23.745971 43.726116  4.0527555 -25.092389 43.022034  4.6456015 -28.936185 47.687641  6.3464355 -28.7423055 47.614204  5.750966 -30.02717 46.917965  4.47082 -28.2329885 44.6179585  6.663752000000001 -26.8982645 45.164009  6.0682825 -28.183129 44.46777  6.385599 -26.339088 42.017575  4.7881365 -26.3889475 42.1677635  5.650218000000001 -25.0425295 42.8718455  9.093743999999999 -29.444295 46.758286  7.7396715 -27.8916915 44.3879305  8.5164075 -26.520543 45.05956399999999  8.0178245 -28.450868 47.5343645  7.440488 -25.527116 45.8356425  7.939071 -23.596791 43.360842  7.162335000000001 -24.9679395 42.6892085  10.272132 -26.770447 48.10225  9.105601499999999 -25.183619 45.73154599999999  8.607018499999999 -27.113944 48.2063465  9.682938 -28.107371 47.430268  9.255521 -27.799327 44.159326  9.417298000000001 -26.154359 41.560366  7.901448500000001 -26.2467235 41.7889705  8.6781845 -24.875575 42.460604  9.844715000000001 -26.462403 44.831308  -1.918813 -24.565323 43.4631775  -2.3341185 -26.093461 42.545108  -7.9855845 -29.681743 46.78048800000001  -7.091809 -28.552034 44.05993650000001  -5.986571 -27.0520275 41.57210600000001  7.1365435 -29.181041 43.6379465  8.550743499999999 -29.1174045 43.4227355  8.490615999999999 -30.7336445 46.008302  7.887488 -32.022994 45.258318  7.947615499999999 -30.406754 42.6727515  8.007743 -28.790514 40.087185  7.196671 -27.564801 41.05238  -2.0201135 -29.914982 47.266277  3.89467 -29.4918175 43.828815  5.364838499999999 -29.5493495 43.645975  5.174816 -31.285999 46.1288215  4.598666 -32.544828 45.339678  4.788688499999999 -30.8081785 42.8568315  4.978711 -29.071529 40.373985  4.0846925 -27.755168 41.3459685  6.4330995 -30.5472615 42.8161515  6.243077 -32.283911 45.298998  6.819227 -31.025082 46.08814150000001  -4.7871225 -29.1376785 47.55336800000001  3.116081 -30.900061 42.9273035  3.5072655 -31.5
[...]
<PointData  Vectors="u"> 
<DataArray  type="Float64"  Name="u"  NumberOfComponents="3" format="ascii">7.3875589961546723e+01 -1.7947385483963995e+01 3.2723690651123398e+01  7.8360200492410215e+01 -1.6465065502258003e+01 3.0986913218440595e+01  7.4466413965422817e+01 -1.5549192504526292e+01 2.9651299460667694e+01  7.4623827199174016e+01 -1.7232662711474592e+01 3.0506305144149039e+01  7.4001366879757967e+01 -1.6052505313032555e+01 3.2185228180768853e+01  7.3853569678613894e+01 -1.4668326437979603e+01 3.1111298938496603e+01  7.3805849535513886e+01 -1.5610675665675434e+01 2.7896753807347554e+01  7.8299092817851047e+01 -1.4796022565771560e+01 2.9997907796061337e+01  7.8367038578116492e+01 -1.5923004867518729e+01 3.2816345119869666e+01  7.4643227451152427e+01 -1.4164591581495735e+01 2.8801183864597945e+01  7.3942736448843519e+01 -1.3842643902519645e+01 2.7346093805179908e+01  7.3817705257326125e+01 -1.2678681326547347e+01 2.6133996494652699e+01  8.3382594634820620e+01 -1.7244669816252038e+01 3.4569949168768666e+01  7.8360426174093703e+01 -1.8307316413412561e+01 3.1794199424677267e+01  7.4493333840472076e+01 -1.8805927277001100e+01 3.1118092721913627e+01  7.3814417124293641e+01 -1.8777700925616823e+01 2.9243165072875392e+01  7.3984093496627068e+01 -1.6972403614566357e+01 2.8894345729841174e+01  7.8315693585681970e+01 -1.8673260791984656e+01 2.9930534337566719e+01  7.8367441812776306e+01 -1.6985800440322798e+01 2.9190983321052286e+01  8.3196699447053973e+01 -1.8488777584983541e+01 3.0581657803749049e+01  7.3805228190709101e+01 -8.6632321973171944e+00 1.7002164317077344e+01  7.8262923350039102e+01 -8.7205823073922986e+00 1.6176577229832507e+01  7.4645658372104805e+01 -7.6169852517592753e+00 1.4930638807937845e+01  7.4231788873152340e+01 -8.8745234442818610e+00 1.5513669938657586e+01  7.3764521898884723e+01 -8.2011406813789218e+00 1.4152133086833340e+01  7.8283650063293123e+01 -7.5156587421470995e+00 1.3859754270983732e+01  7.8300091388008639e+01 -8.4390276023969122e+00 1.4587938361878381e+01  7.4074757078312047e+01 -7.1759881333317237e+00 1.3669801477832401e+01  7.3843939972418568e+01 -6.5614994834489169e+00 1.2934251344852999e+01  8.3212916598065064e+01 -8.7545216236685626e+00 1.5110377819928235e+01  7.3719676797615904e+01 -1.3181622102961160e+01 2.3155585025390121e+01  7.6201069060687786e+01 -1.3071682257884104e+01 2.1577986032250084e+01  7.8334253528732660e+01 -1.2838568277873888e+01 2.2254943604044868e+01  7.8344611106218153e+01 -1.4466917808890409e+01 2.4259951242884654e+01  8.3392553560923872e+01 -1.5762343694542782e+01 2.5212114832845099e+01  8.0542830560114353e+01 -1.4010865960685985e+01 2.2063993522978656e+01  8.2568757303786867e+01 -1.4768216849915154e+01 2.2630657080648358e+01  8.3433243955240812e+01 -1.2299229850343808e+01 2.0866203700952351e+01  8.0428903273497539e+01 -1.2470794853040569e+01 2.0270369963310888e+01  7.8128269572926612e+01 -1.2655012925109006e+01 1.9742265769645655e+01  7.4997004413974821e+01 -1.2472459051265890e+01 2.0808277531212386e+01  7.3772015645126544e+01 -1.0808717385534159e+01 1.8358485956893702e+01  7.6144977614840329e+01 -1.1696939725702185e+01 1.9046192559828068e+01  7.8343692254144372e+01 -1.1517840292008056e+01 1.9557110426366624e+01  7.3771498423372137e+01 -1.3690612840734365e+01 2.1898110077672889e+01  7.3772175721773138e+01 -1.3692662209906056e+01 2.0958034203963486e+01  7.6091071695984354e+01 -1.3071276229738681e+01 2.0375902289789266e+01  7.8330456143868005e+01 -1.4662520394964529e+01 2.2999487941483778e+01  7.8298592286666604e+01 -1.3854566400404696e+01 2.5503512170665093e+01  8.3292906897589276e+01 -1.4585949090854811e+01 2.8073321845294281e+01  8.2109789720136021e+01 -1.3126160629149988e+01 2.4273697362747164e+01  8.3294759135697745e+01 -1.4805784278913835e+01 2.6373921671275280e+01  7.4399762476475232e+01 -1.1576054565718458e+01 2.0329057157567561e+01  8.3046429581194730e+01 -1.3302417191096675e+01 2.0359846196832493e+01  8.3299685588233018e+01 -1.4828121245107706e+01 2.3240470576439915e+01  8.3256880780689443e+01 -1.4868553383597423e+01 2.1154376879180113e+01  8.0448379075282446e+01 -1.3645816253896365e+01 2.0368311082165256e+01  7.8303924564459479e+01 -1.4410064046759771e+01 2.1217431409603545e+01  7.3791579955778076e+01 -5.7718957383976024e+00 1.0202165910901602e+01  7.8296358592523021e+01 -4.4183282605546630e+00 8.0526383738704137e+00  7.8297131522148959e+01 -5.0710136321450605e+00 9.5721077766160505e+00  7.8266606474724384e+01 -5.7142714923943689e+00 1.0127276993727461e+01  7.4507114025060417e+01 -4.6176968254563002e+00 8.3904534347070427e+00  7.3691755503007286e+01 -5.0362921291790217e+00 9.8228215579689859e+00  7.3780595636010759e+01 -4.6546500904484462e+00 9.2131823939565258e+00  7.4121727087764640e+01 -4.4973630841155510e+00 7.5540604701012404e+00  7.3940097698465820e+01 -3.5375645763246011e+00 6.3495457364270971e+00  8.3217587329388536e+01 -5.4967125180722691e+00 1.0047353212668359e+01  7.8278822468607871e+01 -7.8173113204732045e+00 1.2745447255313026e+01  7.8262330374271514e+01 -9.2577144927795842e+00 1.4833047611219275e+01  7.4279678440561838e+01 -7.9636643557077722e+00 1.2338090301346950e+01  7.3972286239893876e+01 -8.8626764057926373e+00 1.4533968409909599e+01  7.3748301084262650e+01 -9.7344848664298613e+00 1.4589730598601149e+01  7.4574168946373035e+01 -8.1068290485803924e+00 1.2820771633358035e+01  7.3795308031272214e+01 -6.9667459075048122e+00 1.0860025862935716e+01  7.8339955426303632e+01 -8.8639346681141351e+00 1.7770292639426504e+01  7.8366955973947668e+01 -1.0202899700788711e+01 1.8750580921601113e+01  7.8352599002540799e+01 -9.8222706862413087e+00 1.9871743335665766e+01  8.3189545193702031e+01 -1.1326693917235920e+01 2.3593629814354621e+01  8.2806490954862767e+01 -1.0702075336953396e+01 1.9443743447346488e+01  8.2695117100463477e+01 -1.0010075160920785e+01 2.0996724153283164e+01  8.3374437993796263e+01 -1.1724788450492403e+01 2.2670672918406527e+01  8.3150738127462304e+01 -8.9458280262298651e+00 1.8484760704280657e+01  7.8327101480762792e+01 -1.3114713143830340e+01 2.9272170187554472e+01  7.8320791477918192e+01 -1.4184555829553760e+01 3.2175451840547815e+01  8.3485869220216088e+01 -1.5721350948450873e+01 3.3713858327914465e+01  8.3215585051504377e+01 -1.3569672478747773e+01 3.3059321195928312e+01  7.8253160326276614e+01 -1.2078037273395536e+01 2.6971977641299588e+01  7.8286255838274641e+01 -1.3558456543741654e+01 2.7129909682460926e+01  8.2389175697202162e+01 -1.2177679861364355e+01 2.9933617337600289e+01  8.2450119968761271e+01 -1.3617423081842373e+01 3.0265067496848140e+01  8.2740902455369678e+01 -1.3238001946491629e+01 2.8282047523583415e+01  8.3131237581366449e+01 -1.1055653772443485e+01 2.7648113054691709e+01  8.2332381057398749e+01 -1.5407349313436400e+01 3.1072988764246226e+01  7.8315701842595885e+01 -1.0888485981992572e+01 1.7378069049521986e+01  7.8314052706458497e+01 -9.9514276409485127e+00 1.7161456149096551e+01  8.2246721720960366e+01 -1.0172290923060467e+01 1.7697417706739081e+01  7.4281404187167198e+01 -9.5969699288159926e+00 1.8044973232241041e+01  7.4959026761705289e+01 -9.4170683121003318e+00 1.6334459850216483e+01  7.8287163018281177e+01 -5.5160007668914277e+00 1.1269964138542985e+01  7.8280871078411138e+01 -6.1219255488362663e+00 1.1609355038643359e+01  7.8265895386287895e+01 -6.5589869471010314e+00 1.3251631283260176e+01  7.4373133386450476e+01 -5.6516709360861679e+00 1.1153950233412713e+01  8.3202637610933593e+01 -6.4894726864560708e+00 1.3582445998205193e+01  8.3000247036179871e+01 -5.7212876638095498e+00 1.2024470495971180e+01  7.4151053828473749e+01 -6.5204488329488077e+00 1.1532442319091077e+01  8.2424358802014751e+01 -7.2464629886497880e+00 1.2201557172776203e+01  8.2837714503086815e+01 -7.6941760483434578e+00 1.4197817731467717e+01  7.8251609083116151e+01 -7.0831120337559108e+00 1.2386665756133093e+01  7.4482192528006749e+01 -6.8790430224301806e+00 1.2217851693787511e+01  7.3730174902110747e+01 -6.1784929418521921e+00 1.0645934951148561e+01  7.8289476628408167e+01 -6.2932266999622950e+00 1.0449090816193692e+01  7.8302446016821662e+01 -1.5101112851457479e+01 2.8054155066749736e+01  7.8291927153711896e+01 -1.5604310893238585e+01 2.6584036726701871e+01  8.2662637867219800e+01 -1.6818046360491337e+01 2.7946453915675413e+01  8.3188914093037255e+01 -1.6883621334670870e+01 2.9182607382183978e+01  7.8367094816654259e+01 -1.7258501426921779e+01 2.7494212084376027e+01  7.4340809297854065e+01 -1.6236487559334744e+01 2.6447465728552324e+01  7.4625471694546235e+01 -1.4740297703329016e+01 2.5703312830205622e+01  7.3765732110317856e+01 -1.6199729105221994e+01 2.4956560408824870e+01  7.4129310316569558e+01 -1.4649034674096541e+01 2.4502721010185141e+01  7.8334701599453041e+01 -1.6036762485436014e+01 2.5149443325401759e+01  7.8298702808182838e+01 -1.7523265761141818e+01 2.5695424413855399e+01  8.2706411255009201e+01 -1.8599224312516551e+01 2.8501367462624032e+01  8.3255071236408213e+01 -1.9020846738302641e+01 2.6328031867709264e+01  8.3530380428345225e+01 -1.7833014990189465e+01 2.5879477437482613e+01  7.8324343355089383e+01 -1.2405371468651373e+01 2.3529713161781441e+01  7.8319410755112102e+01 -1.2108974601951632e+01 2.5046091093955312e+01  7.4274826447840141e+01 -1.3272320466785365e+01 2.4790534932056072e+01  8.2696705910435497e+01 -1.3249604309565431e+01 2.5281875012277268e+01  7.4581661872070967e+01 -1.2011124807501199e+01 2.3961362188756151e+01  7.4031293044354769e+01 -1.1319931009916489e+01 2.2421647887674279e+01  7.3846276730792141e+01 -1.0562575737183362e+01 2.1358668366579611e+01  7.8348152279511282e+01 -1.1036353943250594e+01 2.2416808088660481e+01  7.8294706031439318e+01 -1.1455379607935894e+01 2.1254627488731973e+01  7.8244857840978710e+01 -7.1735196968589756e+00 1.0945759076969003e+01  8.2698953330550836e+01 -6.5145106267305133e+00 1.0389313158796009e+01  8.2786794132058390e+01 -7.6296125102819214e+00 1.3033328341673867e+01  8.3200285627355541e+01 -7.4124508710219335e+00 1.1163978459131890e+01  8.2826446442822146e+01 -1.7582427266522565e+01 3.2445874581721000e+01  7.4669905031832187e+01 -1.1081375607301506e+01 1.9827433737538048e+01  7.4779957397095700e+01 -9.9201109695003247e+00 1.9254302837176713e+01  7.4709131717681416e+01 -1.0891152531951073e+01 1.6401259561530917e+01  7.8312989518487655e+01 -1.6052687779204305e+01 2.3604252554940654e+01  7.4468065265211962e+01 -1.4999948195451019e+01 2.3169747458453354e+01  8.0290034471875813e+01 -1.1997357500617229e+01 1.8117981515683052e+01  8.2334278640609213e+01 -1.1429491671485387e+01 1.8845921229795113e+01  8.2186214781971103e+01 -1.3270127800582729e+01 1.8504401609837913e+01  8.3313655168138581e+01 -1.1334664282097391e+01 1.6282111010892869e+01  7.3876241074525808e+01 -1.2549038868720148e+01 1.7741071069724690e+01  7.6174282898881984e+01 -1.2598413004863390e+01 1.8695920838757157e+01  7.8288662222120934e+01 -1.2041261700732953e+01 1.7233148783501182e+01  7.8291972138693239e+01 -1.3729022060088614e+01 1.9401137517135254e+01  7.4653909718311454e+01 -1.1657701113474735e+01 1.8032941251008548e+01  7.4020312464726828e+01 -1.3787735551065751e+01 1.9013519221548968e+01  7.3885801516254546e+01 -1.9016057749402112e+01 2.5680800132111770e+01  7.8356449943414717e+01 -1.8989632657990548e+01 2.8088652559994955e+01  7.8334258375374532e+01 -1.9054151976926754e+01 2.6073578808706738e+01  7.4146330059594760e+01 -1.7488657391279887e+01 2.5709457423312767e+01  8.3195504618993098e+01 -8.5310050530202695e+00 1.7152555610138307e+01  7.8249820273187794e+01 -8.8935727305677155e+00 1.3313011871629245e+01  8.2055991338150534e+01 -9.3421757333987010e+00 1.3354728354138539e+01  8.3263236484346038e+01 -1.0347897449316505e+01 1.5701560972578019e+01  7.4703852796840891e+01 -1.7696253204194171e+01 2.7273210525828471e+01  7.8301271024543752e+01 -1.0426256273823757e+01 1.5364379084417319e+01  7.4139053885463056e+01 -1.6461183888115283e+01 2.3315753060140995e+01  7.3817268577459501e+01 -1.5967524536656539e+01 2.1648821494662762e+01  7.8364780555499365e+01 -1.7246632786007535e+01 2.3795908433340756e+01  7.3782736807615578e+01 -1.4577930130675202e+01 2.1544135623883054e+01  7.4651692866127959e+01 -1.7500173419284518e+01 2.3936402644636793e+01  7.8305751023423880e+01 -7.6560840898443239e+00 1.5442882801934148e+01  8.2462003849905372e+01 -7.7838327906143867e+00 1.5949640894606114e+01  7.8279070810509566e+01 -1.5539598918336038e+01 2.1501165296729692e+01  8.2619758528466576e+01 -1.6913535735617899e+01 2.3629821106760165e+01  7.4466511182182188e+01 -1.4257936749987323e+01 1.9989607888277892e+01  8.3029954146773079e+01 -1.0987143541148471e+01 2.5896782553783083e+01  7.6229060781843813e+01 -1.1245342697433578e+01 1.7084947354996693e+01  7.4718068520501518e+01 -1.0862408426901789e+01 1.6637859913140019e+01  7.3835968562925615e+01 -4.4677149867354959e+00 7.2131029703509384e+00  7.8325862340007333e+01 -3.5905883868982325e+00 6.2676855538275280e+00  7.8360638582744528e+01 -4.2055491512982943e+00 6.7619586697241507e+00  7.8295278462307749e+01 -5.0076501796648190e+00 8.4498211568344939e+00  7.3862976858937941e+01 -3.8780056394832343e+00 6.9248717107382882e+00  8.3050426841712209e+01 -4.3287052585226649e+00 8.4863906824726687e+00  8.3419722170109139e+01 -3.6914808081262436e+00 6.0434191908630490e+00  7.8349657357048017e+01 -2.4010686624509519e+00 4.2054807880415748e+00  7.8348503822496170e+01 -3.1543208369208533e+00 5.8588694489983952e+00  7.4407628428343926e+01 -3.1766329040597605e+00 4.8819490083705794e+00  7.3762304977414132e+01 -2.1105990361034683e+00 3.6005048640792072e+00  7.8346450051104569e+01 -2.8340073171301774e+00 4.5904022650226119e+00  8.3399103669671035e+01 -3.0893247204976975e+00 5.2255905450975924e+00  8.3429108739623686e+01 -2.5388170123656484e+00 4.7555068223132801e+00  8.2715776384772269e+01 -4.2122829591378323e+00 7.2716932086950683e+00  7.3853317188534476e+01 1.2927828460786880e-01 -1.3216938139484471e-01  7.8317616091146519e+01 -5.4399088311591637e-01 8.1249743929968810e-01  7.8321482420027195e+01 8.8129914032135614e-01 -1.3834975168098040e+00  7.8309865571255500e+01 -1.4592715899989117e-01 2.3025818489663766e-01  7.3977346167454982e+01 -1.2754084854636469e-01 4.5743287011869843e-01  7.8310118474067636e+01 1.2345851041750884e+00 -2.0582921427444627e+00  7.3874057035359144e+01 -5.7333071980990735e-01 9.5358876868633247e-01  8.3426275245605680e+01 2.7241517259114669e+00 -4.2469099961279078e+00  8.2191247056063943e+01 1.2507748288633727e+00 -1.6404653321773044e+00  8.3162348616299880e+01 -5.5252394027726470e-01 6.1165191348072145e-01  7.3853385494468853e+01 1.8118479308081998e+00 -2.6090055353579378e+00  7.8334123048546530e+01 2.1539726496603442e+00 -3.4341892735459192e+00  7.4567589127151834e+01 6.8040632348963548e-01 -1.5266649324935733e+00  7.4631252902951360e+01 5.8901995705817811e-01 -8.5201023639279116e-01  7.8314871322828978e+01 3.5329357716492843e-01 -5.4338161820607289e-01  7.8272942909465826e+01 1.6757113036988178e+00 -2.4696778640935091e+00  8.3343341601180171e+01 1.5201661549459800e+00 -3.2527460338648417e+00  8.3200033513331505e+01 1.3665984146709604e+00 -2.3783635790139392e+00  8.2188642646747539e+01 5.8519760253144515e-01 -6.8385860080745209e-01  7.3754972344249708e+01 -1.3516780584205266e+00 2.8440444872874888e+00  7.8323497402688844e+01 -9.8314831573924821e-01 1.8681205857902392e+00  7.4474033042981546e+01 -9.6143336197768714e-01 1.0634180481449975e+00  7.4038927389708334e+01 -1.6413591202372517e+00 3.2488758124014079e+00  7.8318837662512166e+01 -1.3561091518569850e+00 2.3112825342803869e+00  7.4687881547414264e+01 -9.7478088393061102e-01 1.8124686583474670e+00  7.8328738810489014e+01 2.5417234686599266e+00 -4.2754551787820629e+00  7.3933096363981818e+01 2.2426247248086164e+00 -3.2078924020413382e+00  7.3838017561679862e+01 2.3439993991595145e+00 -3.9188543751795515e+00  7.4738605792413949e+01 1.3340546158492763e+00 -2.1189915223626357e+00  7.4179085318402940e+01 -5.5220216752124349e+00 8.4903304762592278e+00  7.3743547964236058e+01 4.5638866158689817e+00 -7.9439051653819481e+00  7.8294184636831218e+01 3.0840171693877756e+00 -5.4893910452054984e+00  7.8362228106358415e+01 3.8353280488623454e+00 -6.4143487670971657e+00  7.8369480933677167e+01 4.3307303725510442e+00 -7.6800712178919976e+00  7.4685619494252663e+01 3.6247641184492894e+00 -6.1563093826266577e+00  8.3219463749858193e+01 3.9784000673814641e+00 -7.2459256427599374e+00  8.2941052675074928e+01 3.3166093956543206e+00 -5.9746473133073108e+00  7.4526495148824054e+01 2.9925982883476685e+00 -5.3501344819446794e+00  7.3822745960355419e+01 4.6120500552548958e+00 -7.0113066858213422e+00  7.3775657806113529e+01 4.1638581763919733e+00 -6.3588529493086581e+00  7.8323305426217630e+01 3.5208696645683872e+00 -5.5837306817843766e+00  7.8324769959002708e+01 5.0922782053844013e+00 -8.5199066747156866e+00  7.8383817629218882e+01 4.7990113413704094e+00 -7.5682433033559882e+00  8.3212962855768325e+01 5.6658705030325844e+00 -8.9803495616478255e+00  8.2622026181763445e+01 4.2981309980861910e+00 -6.7534317544872033e+00  8.3063636744740606e+01 4.9721110764900311e+00 -7.8900709909940350e+00  7.3776240768692105e+01 6.4739905288475503e+00 -1.0293700977068603e+01  7.8322254986728424e+01 6.1331347395702176e+00 -9.7691144757347956e+00  7.8335078185483823e+01 6.4872609897872717e+00 -1.0996605693663239e+01  7.4188667694974157e+01 5.1929215428879525e+00 -9.4536387835495823e+00  7.8318353173771555e+01 5.4109370830078714e+00 -9.7130563430018224e+00  8.3179666298665111e+01 6.3938050537078617e+00 -1.1765309573840222e+01  8.3238254269021624e+01 5.8856387296368284e+00 -1.0588233325792581e+01  7.3802972250770893e+01 6.6700828283233982e+00 -1.2102203612380737e+01  7.8321626270011308e+01 6.6282626451968794e+00 -1.2019969440112391e+01  7.4677999079490462e+01 5.7906910523066761e+00 -1.0127776579050638e+01  7.3848871140704418e+01 6.8619776869089009e+00 -1.0993512259163529e+01  7.8370256404603325e+01 7.3740357277283479e+00 -1.1738466606267551e+01  8.3279026101223039e+01 8.5201759731517548e+00 -1.3498305067074337e+01  8.2662491600502946e+01 7.1063139175192829e+00 -1.1154247386945551e+01  8.2913744850375352e+01 7.5696344923239680e+00 -1.2468323451550857e+01  7.8324982971644644e+01 7.5487045957287373e+00 -1.2764577358741064e+01  8.2712923642598284e+01 -7.7471327587725569e-01 2.8265002515781577e+00  8.2533126184724537e+01 -2.2581955710462580e+00 3.2522070176220939e+00  7.4567739609565677e+01 -5.6161593645618719e+00 9.1185948321942814e+00  7.8247678557279102e+01 -5.8173167934532568e+00 8.9666247386964208e+00  8.2459470027053968e+01 -5.8716887775067779e+00 8.3460086338841162e+00  7.8336622043780480e+01 5.9193802445668844e+00 -8.8503781311290872e+00  7.8367635458003178e+01 7.1347841903833213e+00 -1.0655085634109497e+01  7.3906725057264083e+01 6.5447238359984850e+00 -9.2478776368381244e+00  7.3799239400571778e+01 6.0581773986961771e+00 -8.5658840173376145e+00  7.8364363330144698e+01 6.8659897693717333e+00 -9.6580530047900055e+00  8.3257499194782980e+01 7.7720453013766644e+00 -1.0917153304198656e+01  8.2882114374886783e+01 6.8815020960365807e+00 -9.8394541290784172e+00  7.4538261398475598e+01 -1.5991927725724198e+00 2.0785892292203210e+00  7.8342792805580928e+01 3.2133468260688844e+00 -4.7929619754607318e+00  7.8334517978035436e+01 4.4481202321017603e+00 -6.5879949970158878e+00  7.3860579034691426e+01 4.0637847763591619e+00 -5.4577051220909265e+00  7.3836233593012395e+01 3.5594922696262330e+00 -4.9223492906897626e+00  7.8330885876994799e+01 4.0836667303603633e+00 -5.7456066217896229e+00  8.3252956298070032e+01 4.7095401775875123e+00 -6.7365544028567106e+00  8.2922711590624459e+01 3.9038309687319739e+00 -5.4414753123135950e+00  7.8317224123431913e+01 5.5409989896565470e+00 -7.8022885823589796e+00  7.4647993864983718e+01 4.8444686565959154e+00 -6.7711109409110826e+00  7.4341839788164179e+01 4.8989141551739106e+00 -7.8410214286115378e+00  7.4588335865460948e+01 -3.2976475780332666e+00 5.6197642022108534e+00  7.8312707352502045e+01 2.6604925761467402e+00 -3.7565347823942092e+00  7.4459753890155000