<?xml version="1.0"?>
<VTKFile type="UnstructuredGrid"  version="0.1"  >
<UnstructuredGrid>
<Piece  NumberOfPoints="4970" NumberOfCells="22125">
<Points>
<DataArray  type="Float64"  NumberOfComponents="3"  format="ascii">34.972806 27.527747 -22.784336  35.572586 27.867666 -21.340687  37.4141975 29.9681425 -22.5413685  38.003092 28.632357 -23.3082775  43.127834 22.2710365 -21.184516  42.4084635 23.06318325 -21.78309525  42.77219700000001 22.27718825 -21.8805425  43.62503 23.76631975 -22.329811  42.41656 22.28334 -22.576569  43.269393 23.7724715 -23.0258375  41.55563050000001 21.57405175 -21.33382675  41.547534 22.353895 -20.540353  41.9112675 21.5679 -20.63780025  40.694701 20.8647635 -20.0910845  51.290418 15.290543 -16.477023  50.4686435 15.6803 -16.011996  50.74107875 14.95435975 -15.911808  50.74264125 15.52292175 -15.29371275  50.1917395 14.6181765 -15.346593  49.91930425 15.34411675 -15.446781  50.193302 15.1867385 -14.72849775  49.646869 16.070057 -15.546969  51.2919805 15.859105 -15.85892775  51.293543 16.427667 -15.2408325  50.470206 16.248862 -15.39390075  51.01798275 16.01648325 -16.577211  50.19620825 16.40624025 -16.112184  51.01954525 16.58504525 -15.95911575  50.7455475 16.7424235 -16.677399  50.200677 18.194304 -16.877775  49.923773 17.1321805 -16.212372  50.47311225 17.46836375 -16.777587  50.74711 17.3109855 -16.05930375  49.093061 13.94581 -14.216163  49.36996499999999 15.0079335 -14.881566  49.64240024999999 14.28199325 -14.781378  49.64396275 14.85055525 -14.16328275  52.226008 14.814978 -13.746293  51.44277125 14.597686 -13.8637605  51.20887375 14.71657725 -14.546443  51.21043625 15.28513925 -13.92834775  50.42563699999999 14.49928525 -14.6639105  50.6595345 14.380394 -13.981228  51.9921105 14.93386925 -14.4289755  50.97497625 14.8354685 -15.2291255  50.97653875 15.4040305 -14.61103025  51.758213 15.0527605 -15.111658  51.7597755 15.6213225 -14.49356275  51.525878 15.74021375 -15.17624525  51.5243155 15.17165175 -15.7943405  49.87629775 14.163102 -14.0986955  51.44277125 14.0441235 -14.37739125  50.6595345 13.273269 -15.0084895  50.6595345 13.8268315 -14.49485875  50.42563699999999 13.94572275 -15.17754125  51.20887375 14.16301475 -15.06007375  52.226008 14.2614155 -14.25992375  51.44277125 13.490561 -14.891022  52.226008 13.707853 -14.7735545  51.9921105 14.38030675 -14.94260625  50.97497625 14.281906 -15.74275625  51.758213 14.499198 -15.62528875  49.87629775 13.6095395 -14.61232625  34.377931 28.804494 -22.043741  34.977711 29.144413 -20.600092  33.783056 30.081241 -21.303146  38.632089 31.533897 -25.478914  36.2075725 30.807569 -23.39103  36.8024475 29.530822 -24.131625  39.870001 28.697744 -26.885358  37.4214035 28.1127455 -24.834847  39.251045 30.1158205 -26.182136  40.4516895 29.2173555 -25.3587885  37.135209 25.815534 -21.319813  36.0540075 26.6716405 -22.0520745  38.725229 22.775637 -21.946003  40.5708945 22.5294885 -22.261286  40.562798 23.30933175 -21.46781225  41.4237275 24.01862 -22.7105545  39.709965 21.82020025 -21.01854375  38.502605 27.256639 -24.1025855  51.44280625 15.09369875 -13.29745475  50.46898575 14.99997575 -16.64242775  49.64721125 15.38973275 -16.17740075  49.9196465 14.6637925 -16.07721275  49.6475535 14.7094085 -16.8078325  50.1965505 15.725916 -16.74261575  49.9244575 15.771532 -17.4732355  50.74588975 16.06209925 -17.30783075  50.4734545 16.7880395 -17.40801875  50.2013615 16.8336555 -18.1386385  49.92411525 16.45185625 -16.84280375  50.20101925 17.51397975 -17.50820675  49.37030725 14.32760925 -15.51199775  42.136554 26.993667 -25.136682  41.0032775 27.8457055 -26.01102  29.047005 39.520674 -27.025688  27.3894725 38.64664999999999 -23.727216  26.637046 38.2261605 -25.2293035  28.081346 37.610023 -24.5841395  28.3551315 40.557301 -26.1687645  27.663258 41.593928 -25.311841  27.115687 35.699372 -22.142591  30.524745 40.323922 -24.046231  28.820216 38.011647 -23.094411  29.785875 39.922298 -25.5359595  29.0940015 40.958925 -24.679036  26.0943765 37.3876325 -26.9894675  27.3889975 37.01857800000001 -26.2263075  27.752384 39.8897285 -27.788848  26.457763 40.258783 -28.552008  25.73099 34.516482 -25.426927  31.555041 37.479387 -27.121484  29.335364 36.5893795 -24.6320375  30.032175 35.3821775 -25.5953815  30.722537 35.854965 -23.987341  28.509309 33.284968 -24.069279  27.812498 34.49217 -23.105935  29.199671 33.7577555 -22.4612385  34.616707 35.974497 -25.367679  32.4360045 38.06201900000001 -25.0994875  33.085874 36.726942 -26.2445815  30.301023 38.5000305 -27.073586  31.039893 38.90165450000001 -25.5838575  26.4233385 35.107927 -23.784759  31.202361 31.806443 -22.688386  29.855835 32.5457055 -23.3788325  31.563008 34.6297325 -24.718479  30.2163275 37.1720115 -22.610041  28.6430155 35.9979345 -26.2742055  27.1201495 33.900725 -24.748103  27.0605105 40.9263555 -26.9319245  30.016587 37.6662255 -28.4951105  28.762569 38.686869 -28.4472125  28.478133 37.853064 -29.868737  27.1045615 36.18477300000001 -27.647832  25.648164 36.7073115 -28.301357  26.385163 35.45213 -29.230415  25.0115915 33.783839 -27.00951  24.292193 33.051196 -28.592093  27.006305 38.1303585 -30.8155105  25.534477 38.407653 -31.762284  30.374638 35.367504 -31.024524  27.7986075 34.920254 -28.548321  27.3334155 34.20935 -29.8083085  28.74686 33.677474 -29.1262145  29.4263855 36.610284 -30.4466305  27.119082 31.987444 -27.227905  25.7056375 32.51932 -27.909999  25.739519 30.37146 -30.24982  24.2866205 30.847858 -30.915826  25.013714 29.451533 -31.678195  25.931332 32.073857 -33.2408285  24.287909 28.531606 -33.10657  23.5608155 29.927931 -32.344201  25.205527 31.15393 -34.66920349999999  22.833722 31.324256 -31.581832  25.1109925 33.624326 -32.338732  26.563891 33.147928 -31.672726  25.99612 39.333218 -30.157146  27.467948 39.05592350000001 -29.2103725  29.3370615 34.7334155 -27.1746945  30.9648395 36.4234455 -29.073004  27.8141955 32.636206 -25.648592  26.425036 33.251963 -26.327416  27.952589 31.156472 -37.20117  24.58036 29.886697 -36.1829435  25.3373755 28.8274295 -36.49987849999999  26.120249 29.844039 -35.15387  27.037867 32.466363 -36.7165035  25.497978 32.509021 -37.745577  26.123145 33.776254 -36.231837  29.152504 33.341966 -34.270174  26.7202065 30.936786 -33.688372  27.6378245 33.55911 -35.2510055  28.5525465 32.249219 -35.73567199999999  27.4460115 31.856713 -32.259997  27.933198 36.88873 -31.4821845  27.388263 35.924396 -33.095632  26.46137 37.16602450000001 -32.428958  28.8814505 35.64595 -32.060078  26.755704 34.850325 -34.6637345  28.2703835 34.633181 -33.682903  23.5629575 32.187726 -30.0869625  25.015856 31.711328 -29.4209565  28.0570785 32.869482 -30.637172  29.763571 34.354735 -32.647349  26.4293005 31.179452 -28.7388625  29.026042 22.242174 -42.411963  25.761668 21.1125405 -41.2059225  26.5347465 19.535172 -41.471218  27.204307 21.106737 -40.2904795  27.583403 22.2479775 -43.327406  28.3564815 20.670609 -43.5927015  27.686921 19.099044 -44.77344  26.9138425 20.6764125 -44.5081445  26.140764 22.253781 -44.242849  25.382572 19.9713 -38.168996  28.010998 22.351291 -39.001687  28.7122225 20.761638 -39.3840575  28.398403 19.281102 -36.356152  26.189263 21.215854 -36.8802035  26.8904875 19.626201 -37.262574  27.6971785 20.870755 -35.9737815  26.995954 22.460408 -35.591411  27.991443 19.457347 -40.540896  27.6776235 17.976811 -37.5129905  26.956844 16.67252 -38.669829  26.169708 18.32191 -38.4194125  27.3218825 17.885782 -41.7216345  26.2077625 22.636588 -40.090655  26.5868585 23.7778285 -43.12758150000001  28.0294975 23.772025 -42.2121385  27.032953 25.301876 -42.012314  27.0144535 23.881142 -38.8018625  24.924762 22.4156135 -40.9897045  25.529844 24.300062 -39.579711  24.7046535 21.634774 -37.658052  24.026735 23.298248 -37.147108  25.5113445 22.879328 -36.3692595  34.805556 -4.037258 -43.683794  30.9606585 -3.1698635 -42.872436  31.678009 -4.463117 -42.219391  32.368651 -2.876134 -41.849079  33.3975635 -4.3309875 -44.707151  31.989571 -4.624717 -45.730508  30.2700165 -4.7568465 -43.242748  29.931746 -1.71501 -40.014364  29.241104 -3.301993 -40.384676  28.550462 -4.888976 -40.754988  34.12996750000001 -5.879198 -43.96195849999999  33.454379 -7.721138 -44.240123  31.0024205 -6.305057 -42.4975555  32.721975 -6.1729275 -44.9853155  32.358193 -6.1677195 -41.493982  33.0337815 -4.325779499999999 -41.2158175  31.262007 -4.614301 -38.747841  29.9062345 -4.7516385 -39.7514145  30.5968765 -3.1646555 -39.3811025  31.265518 1.32708 -38.996234  29.90611 1.30721 -40.01292  30.598632 -0.1939649999999999 -39.505299  32.335264 0.2465885 -41.9670395  29.239224 -0.213835 -40.521985  28.546702 1.28734 -41.029606  36.127619 -0.53621 -42.784432  34.1650805 0.885931 -44.317514  34.7663145 -0.6850565 -43.8611385  35.526385 1.0347775 -43.2408075  33.6965685 0.395435 -40.890333  34.925151 2.605765 -43.697183  33.0953345 1.9664225 -41.34670850000001  33.40501 -0.8339029999999999 -44.937845  44.887647 -4.8455135 -27.717143  44.0145125 -5.026744 -29.026751  44.4351705 -4.40341725 -28.487237  45.687702 -5.3037075 -29.1696465  44.466989 -5.46884025 -28.256657  45.7195205 -6.3691305 -28.9390665  46.1401785 -5.74580375 -28.3995525  44.046331 -6.092167 -28.796171  43.982694 -3.961321 -29.257331  45.2352255 -4.86161125 -29.9397405  45.582804 -4.877709 -32.162338  44.36209100000001 -5.042841750000001 -31.2493485  44.782749 -4.419515000000001 -30.7098345  44.8145675 -5.484938 -30.4792545  43.56203600000001 -4.58464775 -29.796845  43.141378 -5.207974500000001 -30.336359  46.0352805 -5.31980525 -31.392244  46.487757 -5.7619015 -30.62215  42.382584 -3.044933 -26.352324  41.96192600000001 -3.66825975 -26.891838  43.182639 -3.503127 -27.8048275  43.2144575 -4.56855 -27.5742475  42.79379950000001 -5.19187675 -28.1137615  42.76198100000001 -4.12645375 -28.3443415  41.541268 -4.2915865 -27.431352  43.6351155 -3.94522325 -27.0347335  40.699952 -5.53824 -28.51038  41.12061 -4.91491325 -27.970866  42.341323 -4.7497805 -28.8838555  42.3731415 -5.8152035 -28.6532755  39.879952 -3.138143 -39.188538  36.841861 -3.717597 -37.8893535  
[...]
<PointData  Vectors="u"> 
<DataArray  type="Float64"  Name="u"  NumberOfComponents="3" format="ascii">8.3419505201273864e+01 -6.2757354159488621e+01 5.2010182725470813e+01  8.3298299437724268e+01 -6.6989293103358733e+01 5.0777407519051913e+01  7.8394461024184494e+01 -6.2564771906303910e+01 4.7044134711326556e+01  7.8305044295171299e+01 -6.2440888228720368e+01 5.0963293325494909e+01  7.8247174255109897e+01 -7.9751478848521444e+01 7.5857664546237984e+01  7.8204493368757056e+01 -7.6148991612769564e+01 7.1887582171237355e+01  7.8251023443952036e+01 -7.6629167184293735e+01 7.5306208189385927e+01  7.5658455223281720e+01 -7.4559467826024616e+01 7.0010285553921591e+01  7.8178435772203983e+01 -7.3681978852356323e+01 7.4561578222210329e+01  7.5679335982354161e+01 -7.1714617981203446e+01 6.9366792820417146e+01  8.0506227933817271e+01 -7.8508202542361786e+01 7.7591290103119363e+01  8.0460806333481926e+01 -8.1172075472295958e+01 7.4608408627153437e+01  8.0706533496759363e+01 -8.1824877375858804e+01 7.8291881104842815e+01  8.3158916788714663e+01 -8.3622601970993088e+01 8.0650894039805536e+01  6.1877416907366793e+01 -9.4702546037823410e+01 1.0223765615193739e+02  5.7199378578266526e+01 -1.0422043173468975e+02 1.0636827143053623e+02  5.0983550433231549e+01 -1.0083109430323060e+02 1.0729856205380362e+02  5.0854238237463221e+01 -1.0516075128038251e+02 1.0393116190145122e+02  3.9943433289700067e+01 -1.0951554529564248e+02 1.1526033175970902e+02  4.8511682017210546e+01 -1.1222032575715315e+02 1.1274560660854870e+02  3.9603361789925849e+01 -1.1457553832665916e+02 1.1093715286394173e+02  5.5603540077964553e+01 -1.1383136424959443e+02 1.0993066262184513e+02  6.1720952153090550e+01 -9.9541976049163708e+01 9.9782505400981421e+01  6.2197831326785639e+01 -1.0338072140215225e+02 9.5949297241279723e+01  5.6953639036388772e+01 -1.0874851870791916e+02 1.0289031123604153e+02  6.6877689108703166e+01 -1.0017061069493298e+02 1.0144146522998996e+02  6.1763367931750587e+01 -1.0720619540712937e+02 1.0474512992924028e+02  6.5521633721705939e+01 -1.0434697938253073e+02 1.0001827030294018e+02  6.7845762554019615e+01 -1.0361325118658579e+02 1.0082693115162824e+02  6.9465036659858271e+01 -1.0281264951887250e+02 9.5223765681157886e+01  6.4455334290683126e+01 -1.0838559094243269e+02 1.0228318082210124e+02  6.6921548853279774e+01 -1.0500351518781609e+02 9.8506167133389738e+01  6.6873716169571154e+01 -1.0690037837480723e+02 9.9077255887740748e+01  2.0143027023477785e+01 -1.3913314172951303e+02 1.4144634460808842e+02  3.9844092247817201e+01 -1.2313228227684910e+02 1.2136552261062484e+02  2.7527919945577285e+01 -1.2160717731197285e+02 1.2856534122363288e+02  2.9769965864906620e+01 -1.2882415546032843e+02 1.1812947147310598e+02  1.6125211528072686e+01 -7.0147620682603048e+01 6.6601823742695856e+01  1.3757430957198331e+01 -1.0234264525260069e+02 9.9342491488270582e+01  3.1921346204927740e+01 -9.8866322972703628e+01 1.0015844138981601e+02  3.3539496198998584e+01 -1.0455057506990246e+02 9.3578170353908320e+01  2.8133020914764661e+01 -1.1166091124345097e+02 1.1405848614414272e+02  1.6016449893029080e+01 -1.1807327986160617e+02 1.1433482197195561e+02  4.7538864656437234e+01 -8.0128147082429066e+01 8.0674268185677988e+01  4.2273483240205351e+01 -1.0067879424479631e+02 1.0412098686907476e+02  4.3024002149709617e+01 -1.0489248682036632e+02 9.9466781960812398e+01  5.5228377617557292e+01 -9.1001315447417781e+01 9.3238597619484352e+01  5.4510132027128357e+01 -9.6256706990952736e+01 8.9232568742920520e+01  5.8324686133943182e+01 -9.9281249421853175e+01 9.6060458255568506e+01  5.5904610698948673e+01 -9.4079685663513999e+01 1.0023318671014161e+02  1.6647750028861509e+01 -1.3493832266330284e+02 1.2854631888270319e+02  9.8939830537284301e+00 -8.6866302934711641e+01 9.5599677228744426e+01  1.5329229485783420e+01 -1.0469431307776534e+02 1.1874935158160987e+02  1.1820169479599555e+01 -1.0732815103024119e+02 1.1530047278563850e+02  2.7823864257551225e+01 -1.0763574404956813e+02 1.1654648612633763e+02  3.1125388230176014e+01 -9.4986430135034084e+01 1.0082704787816793e+02  1.0000106059365333e+01 -5.6601924705964791e+01 6.0671185872784115e+01  1.0395584654755996e+01 -9.0970719662173394e+01 9.6428761822226548e+01  1.4901629276040877e+01 -6.2537221346846380e+01 6.7380048749397417e+01  4.5454404698698376e+01 -7.7680691321532606e+01 8.2212507541848936e+01  4.4066813707292539e+01 -9.7809124754195551e+01 1.0776352418871062e+02  5.3678967045171355e+01 -9.1871612720924304e+01 9.8697168992887853e+01  1.6594076308593575e+01 -1.1752126177686507e+02 1.3426978364698883e+02  8.3251166822672801e+01 -6.2326044185549030e+01 4.8263943169084818e+01  8.2524415258091437e+01 -6.6133550846239586e+01 4.6654975717616203e+01  8.3440932942420886e+01 -6.2242879340187940e+01 4.4164622616751608e+01  7.3935998966853461e+01 -5.4745002522624603e+01 4.4156375313546945e+01  7.8410407687955839e+01 -5.8429694912772256e+01 4.4366682130934620e+01  7.8446453585093565e+01 -5.8546280234119884e+01 4.7830532138102321e+01  7.3899140465929676e+01 -5.4615620356558495e+01 5.1099347187388759e+01  7.8361616552629002e+01 -5.8633396900500330e+01 5.1807245759366872e+01  7.4120122983066352e+01 -5.5198060316980246e+01 4.7459434876723684e+01  7.4476135441862112e+01 -5.8495351522998718e+01 5.1234554394754767e+01  8.3031876730627161e+01 -7.1773669162227449e+01 5.9273411635681462e+01  8.2721806447814032e+01 -6.6583368008197155e+01 5.5020357556601155e+01  8.3012986769499790e+01 -7.3604935311978878e+01 7.0909942639391772e+01  8.0051691713101363e+01 -7.3495803359290520e+01 7.2618363269302222e+01  8.0079710209622476e+01 -7.5974204045941647e+01 7.0020587772670240e+01  7.7996911276037466e+01 -7.1325939685324840e+01 6.7473785736087748e+01  8.0391556792758109e+01 -7.8282730899297221e+01 7.5789381120929391e+01  7.8301202610553787e+01 -6.2158418521964983e+01 5.4963947943515457e+01  1.2733218756879442e+01 -1.0273119461108060e+02 8.4568587682789442e+01  5.7600680201029505e+01 -9.9907476448514089e+01 1.1070932579938579e+02  5.5420669077686163e+01 -1.0932107035164150e+02 1.1474815494425795e+02  4.8387427701405493e+01 -1.0694823403949273e+02 1.1761156959075147e+02  5.5259305940162299e+01 -1.0437756455767153e+02 1.1916301748313623e+02  6.2084790883453977e+01 -1.0232308047009690e+02 1.0913801100066729e+02  6.5449289023408568e+01 -9.9765748590637429e+01 1.1091670043140532e+02  6.9865007046555263e+01 -9.8777364132412330e+01 1.0650557062460140e+02  6.9412246363947702e+01 -1.0043137853022598e+02 1.0368731923939843e+02  6.9987915311227866e+01 -9.6670199823292080e+01 1.0413239710238997e+02  6.5552780549323003e+01 -1.0434414402224031e+02 1.0626734159441696e+02  7.0058117822464681e+01 -9.9976252361832152e+01 9.9958790501599509e+01  3.9623289290521257e+01 -1.1652044901281788e+02 1.2714817350156365e+02  7.3881232460530299e+01 -6.1555198025077729e+01 5.7269804857745264e+01  7.4698924216076648e+01 -5.8615511088144046e+01 5.4988669593202353e+01  7.3650340084650196e+01 -3.7075902716598009e+01 2.5351460050090697e+01  7.8385691246905282e+01 -4.0351168629878224e+01 2.4809296824679564e+01  7.8301703442700159e+01 -3.8008771132927059e+01 2.5079256954327310e+01  7.8366170356104362e+01 -4.1065307701552520e+01 2.6783739964489570e+01  7.3795086058092352e+01 -3.6666712483731054e+01 2.3089879792527210e+01  7.3794498182615357e+01 -3.5924256984066744e+01 2.1644048295316029e+01  8.3319996037990791e+01 -4.5617158796794847e+01 2.8352817766175594e+01  7.3860995322155020e+01 -4.1261414793369461e+01 2.4836175795554119e+01  7.8395631618375816e+01 -4.3481624794826494e+01 2.6423816238341409e+01  7.3922374301953937e+01 -3.9325040842938257e+01 2.5648558296496621e+01  7.4754439191659117e+01 -3.8760173348782864e+01 2.3567793328225473e+01  7.8356128079757866e+01 -3.5918894686034498e+01 2.5956170493836279e+01  7.8412278057480052e+01 -3.8661476834824775e+01 2.7377784204749769e+01  7.4356353600522795e+01 -3.4652117985200519e+01 2.4516119177344557e+01  7.3947019915009591e+01 -3.2149553806922064e+01 2.2857768744989595e+01  8.3246514866888475e+01 -4.0245512516158591e+01 2.9666064256037217e+01  7.3807147745044574e+01 -4.1063067599351569e+01 2.9520145922776074e+01  7.8420073988503930e+01 -4.3316279197229250e+01 2.9149065135859136e+01  7.8457152662595533e+01 -4.3730251688962603e+01 3.1616379033090595e+01  7.8513463965464709e+01 -4.6479736126734856e+01 3.1101705782208729e+01  8.3384505205952081e+01 -4.6840550367185386e+01 3.3925274146661394e+01  8.3390190256127326e+01 -4.6203003854111948e+01 3.1541033943588637e+01  8.2816923840002985e+01 -4.9841929384364171e+01 3.2777722584273562e+01  7.3987029395683464e+01 -4.7353865084273856e+01 3.3384790977465720e+01  7.5062587106314623e+01 -4.4281255023466898e+01 2.9541763001852459e+01  7.4935668866684466e+01 -4.4578495219503289e+01 3.2130472337990618e+01  7.4588004486459965e+01 -3.9655719431182163e+01 2.7137115114545590e+01  7.4137991224236913e+01 -4.1973166378996332e+01 2.7422729304525742e+01  8.2897376824071486e+01 -4.2819783446924681e+01 2.8719675528582993e+01  8.3420069390690927e+01 -5.4154758753384485e+01 3.8667544253309430e+01  8.2408902819378454e+01 -5.0029588043799386e+01 3.5702555060369427e+01  7.8464738796896384e+01 -4.7270173582424221e+01 3.3754783341172967e+01  7.8438114676012376e+01 -4.6476796552178271e+01 2.8361950696572109e+01  7.8396334331972966e+01 -4.0724286541427418e+01 2.9695110773734001e+01  8.2670203229574952e+01 -4.3187736077236863e+01 3.1261292012647768e+01  7.4480314110087974e+01 -3.4056521052688581e+01 2.2577669710290269e+01  7.4767921448196148e+01 -3.7803258263693508e+01 2.9067525983342062e+01  7.3649570506277243e+01 -3.5648352355859728e+01 2.6502065119535096e+01  7.3564097509704851e+01 -3.4358752947917438e+01 2.6993117874710105e+01  7.8396313463310392e+01 -3.7064916069370170e+01 2.8329930231799722e+01  7.8348129124141707e+01 -3.4363265604537268e+01 2.6440963314319742e+01  7.8326086938664446e+01 -3.4739837378560871e+01 2.8662816341806291e+01  8.2830922673893951e+01 -3.7550351772048828e+01 2.9698619908580149e+01  8.3247657013123074e+01 -3.4973771353534104e+01 3.0276700775043327e+01  7.4662589150107806e+01 -3.1560991458109505e+01 2.6099535330522645e+01  7.3808539759055918e+01 -2.9203545767307688e+01 2.4069884027374545e+01  7.3800663268363394e+01 -3.6063458143364414e+01 3.1422406267199872e+01  7.8417065139158638e+01 -3.7388004194801830e+01 3.0588050304521577e+01  7.8382737409163909e+01 -3.5647729258776067e+01 3.0964819603181187e+01  7.8411807967688816e+01 -3.8323020163361967e+01 3.3111638107368222e+01  7.3955051078056073e+01 -3.5843330005923896e+01 2.8865674636402360e+01  8.3329565249411331e+01 -4.0999812233570225e+01 3.4938225156920751e+01  8.2552072988154805e+01 -3.7645377046835314e+01 3.1975046713585442e+01  8.3296416825350121e+01 -3.5400584684738433e+01 3.5307035470868243e+01  8.2488340559131075e+01 -3.2606601986887135e+01 3.2299293247433539e+01  8.2805357806554454e+01 -3.2811153699409125e+01 3.4828651002372894e+01  7.8394056347900360e+01 -3.0580055239554824e+01 3.1612563355626698e+01  8.3273096137557161e+01 -3.0173829342410791e+01 3.5090119210566051e+01  8.3226066995370701e+01 -3.0003917703298615e+01 3.2869339902519364e+01  7.8386512985340858e+01 -2.8313817459279644e+01 3.1505123499028453e+01  8.3263398054416726e+01 -3.0080433380851876e+01 3.0354350530807874e+01  7.8352183642008342e+01 -3.0385019228611874e+01 2.9211261529247917e+01  7.8390859939983926e+01 -3.2835543090907692e+01 3.1362888953271302e+01  7.4431327759219357e+01 -3.0823264692371485e+01 2.3908675048541401e+01  7.4295660421944291e+01 -3.3603504651840282e+01 2.4672957714830254e+01  7.8393971286442167e+01 -4.1141696302014182e+01 3.2187776203161725e+01  7.4933468236685911e+01 -3.8796235715746633e+01 3.1198351647432961e+01  8.2792269581662879e+01 -4.3881196255856061e+01 3.3974410702809337e+01  8.3376286217236910e+01 -4.0481986494793929e+01 3.2608460541918326e+01  7.3911372003129173e+01 -2.7273570596948080e+01 3.2432343724999342e+01  7.8416346292073754e+01 -2.6134044055503615e+01 3.1605709400608667e+01  7.8364946069554861e+01 -2.6446208667916284e+01 3.3457441811266555e+01  7.8385333492697541e+01 -2.8734557689637732e+01 3.3844065549962380e+01  7.4126071960272810e+01 -2.7436137659742425e+01 3.0163520048105980e+01  7.4625839134205961e+01 -2.4766646535528665e+01 2.8928059098953351e+01  7.3868982559139269e+01 -2.6632204200555581e+01 2.8316559391388498e+01  7.3836617842442081e+01 -3.1492873067689764e+01 3.2193701174145957e+01  7.8345236743695764e+01 -3.0964627364998741e+01 3.3668709659146444e+01  7.4698781545292675e+01 -2.8922900451445649e+01 3.0965167897511233e+01  7.4497123135697223e+01 -2.9361783461091704e+01 3.2822266209445331e+01  7.8396421067215712e+01 -3.3346441947220306e+01 3.3752547233660742e+01  7.4498047660975047e+01 -3.2484906763114857e+01 2.7894405881977100e+01  7.3797891734348312e+01 -3.0548606624687793e+01 2.7965966306309941e+01  7.4024506242346931e+01 -3.0306899384907808e+01 2.5766264011619644e+01  7.4703155226324952e+01 -3.3132693353790991e+01 3.0320057727417787e+01  7.4586686532018760e+01 -2.8657883249929814e+01 2.8693291942314058e+01  7.4040028912545566e+01 -3.1452020462014548e+01 2.9792292192261314e+01  8.2798900456403118e+01 -3.2539629669892626e+01 3.0042147922472790e+01  8.3247452612822087e+01 -3.5057101279827812e+01 3.2943970422584087e+01  7.8354722409459114e+01 -3.5825701428309216e+01 3.3382575176014640e+01  7.4619401895857621e+01 -3.3806390237804514e+01 3.2422009783026411e+01  8.2831855177346497e+01 -3.8164270156442313e+01 3.4738120090838592e+01  7.3892338580226507e+01 -2.0916201954663574e+01 3.9724791227185186e+01  7.8361725318397973e+01 -1.9837507141680653e+01 3.8790823626605452e+01  7.8358302411477695e+01 -1.9314799367080955e+01 4.1028013028668362e+01  7.8404251827776392e+01 -2.1745062845356529e+01 4.1613133101909710e+01  7.4614900880987378e+01 -1.9114372868079538e+01 3.7800994396549271e+01  7.4607408396742201e+01 -1.8621247064116165e+01 3.9682635132762321e+01  7.3930740117859898e+01 -1.6612563518079298e+01 3.8649060436055876e+01  7.3842299451144555e+01 -1.7647958679855016e+01 3.6653642039984682e+01  7.3782968604261711e+01 -1.7596929574703914e+01 3.4936520884030784e+01  8.3399110429933543e+01 -2.2650993795062973e+01 4.3375422128269179e+01  7.8439911958795605e+01 -2.4250284685870625e+01 4.2364705221063936e+01  7.8434226012065949e+01 -2.3563674494485912e+01 4.4685488532540063e+01  8.3375447743272673e+01 -2.6791956576014869e+01 5.0705185154942569e+01  8.2837998467958968e+01 -2.5598009304919085e+01 4.4003413217850159e+01  8.2575215733048410e+01 -2.4652550023738616e+01 4.6614304257124914e+01  8.3527182446278999e+01 -2.7269167630124262e+01 4.8112351955004073e+01  8.3368257954683244e+01 -2.8377162769699218e+01 4.5192504666013932e+01  7.8435317989979538e+01 -2.1050237830594124e+01 4.3977954832568038e+01  8.2936204718580143e+01 -2.4070792398409353e+01 4.9517321859318386e+01  8.3366397839401884e+01 -2.1042389843597498e+01 4.8867746993194757e+01  8.3456508946523329e+01 -2.1499079411182368e+01 4.6383902759640726e+01  7.8415758302279045e+01 -1.8572955628766557e+01 4.3321353786571194e+01  7.8361833977084899e+01 -2.1883594646079640e+01 3.8837902345930090e+01  7.4321506264053852e+01 -1.9351240090958687e+01 3.5368068657446848e+01  7.3913143114799695e+01 -2.1749973127491565e+01 3.7232307471259695e+01  7.3700173711316779e+01 -2.0886903163201211e+01 3.5100898499463746e+01  7.8355003469124796e+01 -2.4362866051863083e+01 3.9622603840714781e+01  7.8318635287443229e+01 -2.0021983848562396e+01 3.6685815895398505e+01  7.8346566566686505e+01 -2.2448935045864680e+01 3.6727097877297460e+01  8.3485206059925488e+01 -2.3039594205521471e+01 4.1156457392834383e+01  8.3356009707119000e+01 -2.4056370610891381e+01 3.8763232059807038e+01  8.2435334747248064e+01 -2.6083735463929493e+01 4.1320666136406793e+01  7.3940923866803388e+01 5.3347707753969891e+00 5.8278797766862418e+01  7.8458009420041122e+01 4.1584654128199467e+00 5.6333600880527406e+01  7.8421744944798377e+01 6.2258124655884091e+00 5.8125968396556225e+01  7.8426940838958913e+01 4.1621118830197821e+00 6.0336514250229612e+01  7.4750105427426050e+01 5.6843534631375388e+00 5.5319017958866752e+01  7.3984942741998779e+01 5.2177266363571979e+00 5.1020364421886107e+01  7.8469287355001285e+01 5.9908636208722008e+00 5.4217584093603129e+01  8.3335713170229070e+01 2.7332239962358491e+00 6.2203953400356696e+01  8.2905996606124177e+01 4.5937306873704848e+00 5.9660093080869416e+01  8.3254114798828894e+01 6.9824310807715841e+00 5.7445791905217526e+01  7.4594806316572843e+01 7.8801542761674872e+00 5.6802839067806723e+01  7.3943036394201414e+01 9.4344928360832991e+00 5.4154972764046576e+01  7.8456119087246620e+01 8.3164084968648577e+00 5.5989566489635806e+01  7.4121418806428295e+01 6.8700367496302848e+00 5.2849749807666541e+01  7.8439733684288967e+01 8.9011862483050397e+00 5.9819896908803685e+01  7.8440596984560557e+01 6.5201747127708076e+00 6.2071465750036978e+01  8.3342918604110494e+01 7.9907448759563460e+00 6.6222501427646449e+01  8.2580737164476702e+01 7.1943444561699570e+00 6.1170941876926577e+01  8.3137749356027612e+01 5.4840076693082924e+00 6.3999738212500326e+01  8.3378323038172269e+01 -2.2103362284178285e+00 6.6715043079083145e+01  8.2557208393144691e+01 -2.1914182063639380e+00 6.1507956364986654e+01  8.2913048761538576e+01 -4.0463048237937740e-02 6.4141225540401848e+01  7.8428547946399007e+01 -3.7370375097714681e-01 6.0392808352111473e+01  8.3201292417157703e+01 6.8124310145709688e-01 6.0020572382249561e+01  8.3293570703286719e+01 -1.7347889517079360e+00 5.7966632915984981e+01  7.3913821014427384e+01 6.7795172577183749e-01 6.2301510841299780e+01  7.4570562097909246e+01 -9.7154338627258341e-01 5.7489390046049962e+01  7.4713663889768327e+01 1.1395839232681497e+00 5.9192327872505906e+01  7.4095888399832205e+01 -1.8292625678660115e+00 6.0659782845663273e+01  7.8409849004199486e+01 -6.3385297904713889e-01 6.4576222104717544e+01  7.3903217980798672e+01 -3.6081194872354474e+00 5.8800777473690331e+01  7.8432786070365097e+01 -3.0015979340840131e+00 6.2563698622188490e+01  7.4005380126308808e+01 9.4258580175382001e-01 5.4749588346176623e+01  7.8073266014833180e+01 2.1582728350627665e+01 1.2340110334833989e+02  7.8315654110643635e+01 2.0001611829164755e+01 1.1548390479447367e+02  7.8221361447806558e+01 1.8514036766378712e+01 1.1962967847599543e+02  7.6154312744566028e+01 2.0957302370619644e+01 1.1566177844356520e+02  7.8226744931332291e+01 2.3080207727797500e+01 1.1907737572382135e+02  7.6269596945330164e+01 2.5332168333361306e+01 1.1461945214243907e+02  7.5836657726570550e+01 2.3960806852176439e+01 1.1882878064234237e+02  7.8257401719219672e+01 2.4296144667894787e+01 1.1482400828590146e+02  7.8265721856621255e+01 1.5699727256498152e+01 1.1582140613847130e+02  7.5955622957122813e+01 1.8265208770713027e+01 1.1255382781705278e+02  7.2785204186863126e+01 1.5504042734933336e+01 1.0200279976072297e+02  7.6028521314583415e+01 1.7067793441987718e+01 1.0557004990676288e+02  7.5807257168219664e+01 1.5780510377935924e+01 1.0915733496187799e+02  7.6048942103278264e+01 1.9555833555204647e+01 1.0879094445273375e+02  7.8296063089653941e+01 1.7262246712270848e+01 1.1200325012536152e+02  7.8169308022339379e+01 1.8591460644385236e+01 1.0827612371259345e+02  7.2975927607639335e+01 1.7033808925158102e+01 1.0687688424978404e+02  7.4642971789574389e+01 1.9257903472863102e+01 1.0944196096953986e+02  8.4852895455767481e+01 1.5510248186671859e+01 1.3359301235873139e+02  8.5407342194773420e+01 1.5780290974774420e+01 1.2681840472684375e+02  8.0938376504961070e+01 1.5638127553481189e+01 1.2343527230685346e+02  8.0695381517629571e+01 2.0387754356283171e+01 1.2325607752938107e+02  8.0479351262456120e+01 2.1964073086471586e+01 1.1906287421680271e+02  8.0862508883271758e+01 1.7273113346616714e+01 1.1923170771136535e+02  8.3066619672094205e+01 1.7789647671297029e+01 1.2266400287041701e+02  8.0714664959135675e+01 1.8708231877906456e+01 1.2805314514444319e+02  8.4392244518274353e+01 2.2468972818878051e+01 1.1550128952884087e+02  8.2015887548811108e+01 1.9949155557476423e+01 1.1995841157590361e+02