<?xml version="1.0"?>
<VTKFile type="UnstructuredGrid"  version="0.1"  >
<UnstructuredGrid>
<Piece  NumberOfPoints="4531" NumberOfCells="21397">
<Points>
<DataArray  type="Float64"  NumberOfComponents="3"  format="ascii">-52.226008 -4.497148 19.703294  -51.6187155 -4.61795875 20.03789025  -51.44276425 -4.21609525 19.68415025  -51.44276375 -4.94660225 19.500805  -50.6595195 -5.3960565 19.298316  -50.83547125 -5.067413 19.83540125  -50.65952 -4.6655495 19.48166125  -50.6595205 -3.9350425 19.6650065  -50.83547175 -4.336906 20.0187465  -51.011423 -4.7387695 20.3724865  -49.093031 -6.294965 18.893338  -49.26898275000001 -5.9663215 19.43042325  -49.0930315 -5.564458 19.07668325  -49.87627525000001 -5.845510750000001 19.095827  -50.052227 -5.516867250000001 19.63291225  -49.87627575 -5.11500375 19.27917225  -49.093032 -4.833951 19.2600285  -49.26898325000001 -5.2358145 19.6137685  -49.4449345 -5.637678 19.9675085  -49.093033 -3.372937 19.626719  -49.26898425 -3.7748005 19.980459  -49.0930325 -4.103444 19.44337375  -49.87627625 -4.38449675 19.4625175  -50.0522275 -4.78636025 19.8162575  -49.26898375 -4.5053075 19.79711375  -49.4449355 -4.176664 20.334199  -49.87627675 -3.65398975 19.64586275  -50.052228 -4.05585325 19.99960275  -49.796838 -4.980391 21.041679  -49.62088675 -4.5785275 20.687939  -49.444935 -4.907171 20.15085375  -50.22817875 -5.188223750000001 20.1699975  -50.22817925 -4.457716749999999 20.35334275  -49.62088625 -5.3090345 20.50459375  -50.4041305 -4.85958025 20.70708275  -52.226008 -7.383542 18.812959  -51.2092835 -6.92155125 19.4989525  -51.44276375 -7.11139775 18.83305375  -51.44276375 -6.38979925 19.0556375  -50.42603925 -5.9278085 19.741631  -50.6595195 -6.117655 19.07573225  -50.6595195 -6.8392535 18.8531485  -50.42603925 -6.649407 19.51904725  -50.192559 -6.4595605 20.184946  -51.99252775 -7.1936955 19.47885775  -51.2092835 -6.19995275 19.72153625  -50.97580325 -6.73170475 20.16485125  -51.7590475 -7.003849000000001 20.1447565  -52.226008 -6.6619435 19.03554275  -51.44276375 -5.66820075 19.27822125  -52.226008 -5.940345000000001 19.2581265  -51.99252775 -6.472097000000001 19.7014415  -51.99252775 -5.0289 20.146609  -52.226008 -5.2187465 19.48071025  -51.2092835 -5.478354250000001 19.94412  -51.99252775 -5.750498500000001 19.92402525  -51.7590475 -5.560652 20.589924  -51.292087 -6.624156 21.476554  -51.52556725 -6.814002500000001 20.81065525  -50.742323 -6.541858250000001 20.83075  -50.97580325 -6.01010625 20.387435  -51.52556725 -6.092404 21.033239  -51.7590475 -6.2822505 20.36734025  -49.64279500000001 -6.37726275 19.539142  -49.87627525000001 -6.56710925 18.87324325  -51.20928425 -7.6159805 19.20754225  -50.19255975 -7.15398975 19.89353575  -50.42604 -7.34383625 19.227637  -50.1925605 -7.848419 19.6021255  -50.975804 -7.426134 19.873441  -50.74232375 -7.2362875 20.53933975  -49.64279575 -7.071692000000001 19.24773175  -51.7583895 -4.742323000000001 20.7782335  -51.99186975 -4.210571 20.3349185  -51.151097 -4.86313375 21.11282975  -51.38457725 -4.33138175 20.66951475  -51.7577315 -3.923994 20.966543  -51.52425125 -4.455746 21.409858  -51.290771 -4.987498 21.853173  -51.38523525 -5.149710750000001 20.48120525  -51.52490925 -5.274075 21.2215485  -51.291429 -5.805827000000001 21.6648635  -50.91827475 -6.213214750000001 21.36783525  -51.151755 -5.68146275 20.92452025  -50.5444625 -5.8022735 21.2591165  -50.91761675 -5.39488575 21.55614475  -51.289455 -3.35084 22.229792  -51.290113 -4.169169 22.0414825  -50.91630075 -3.75822775 21.93276375  -51.52359325 -3.637417 21.5981675  -51.150439 -4.04480475 21.30113925  -50.5431465 -4.165615499999999 21.6357355  -50.91695875 -4.57655675 21.74445425  -50.5438045 -4.9839445 21.447426  -50.16999225 -4.573003249999999 21.33870725  -50.77728475 -4.4521925 21.004111  -50.17065025 -5.39133225 21.15039775  -50.77794275 -5.2705215 20.8158015  -48.921684 -8.036866 26.039924  -47.63784925 -7.62574625 25.349594  -47.934365 -7.873507249999999 24.671486  -47.63399525 -8.49879325 25.043568  -46.3463065 -8.960720500000001 24.047212  -46.3501605 -8.087673500000001 24.353238  -46.64667625 -8.3354345 23.67513  -46.947046 -7.7101485 23.303048  -46.65053025 -7.4623875 23.981156  -46.3540145 -7.2146265 24.659264  -44.972408 -7.383431 20.566172  -44.67589225 -7.13567 21.24428  -44.3755225 -7.760956 21.616362  -45.959727 -7.54678975 21.93461  -45.66321125 -7.29902875 22.612718  -45.3628415 -7.924314750000001 22.9848  -43.778637 -8.138481000000001 22.666552  -44.07900675 -7.513195000000001 22.29447  -44.3793765 -6.887909000000001 21.922388  -43.786345 -6.392387 23.278604  -44.08286074999999 -6.640148 22.600496  -43.782491 -7.265434000000001 22.972578  -45.3666955 -7.05126775 23.290826  -45.06632575 -7.67655375 23.662908  -45.06247175 -8.54960075 23.356882  -45.07017974999999 -6.80350675 23.968934  -47.28347575 -8.27120725 25.77666025  -45.995787 -8.7331345 24.78030425  -45.6452675 -8.5055485 25.5133965  -45.999641 -7.8600875 25.08633025  -43.4319715 -7.037848 23.70567025  -44.71195225 -8.322014750000001 24.08997425  -43.4281175 -7.910895 23.39964425  -43.07759799999999 -7.683309 24.1327365  -44.71580625 -7.44896775 24.39600025  -44.36143275 -8.094428749999999 24.8230665  -42.368851 -8.974231 24.986869  -42.7232245 -8.328769999999999 24.55980275  -43.073744 -8.556356000000001 23.8267105  -44.35757875 -8.96747575 24.5170405  -44.00705925 -8.73988975 25.25013275  -50.30650375 -3.504027 21.79328075  -50.74034949999999 -3.35636425 21.57902375  -50.191244 -3.3618885 20.9282555  -49.93334950000001 -3.91141475 21.4962525  -49.75739825 -3.50955125 21.1425125  -50.36719524999999 -3.763752 21.2819955  -49.32355250000001 -3.657214 21.3567695  -50.679658 -3.09663925 22.090309  -49.69670675 -3.24982625 21.65379775  -50.1305525 -3.1021635 21.43954075  -50.069861 -2.8424385 21.950826  -49.20829275 -3.5150755 20.49174425  -49.6421385 -3.36741275 20.27748725  -49.384244 -3.916939 20.84548425  -49.81808975 -3.76927625 20.63122725  -49.0323415 -3.113212 20.13800425  -49.581447 -3.10768775 20.7887725  -48.97165 -2.853487 20.6492895  -49.14760125 -3.2553505 21.0030295  -48.850267 -2.334037 21.67186  -49.08690975 -2.9956255 21.51431475  -48.9109585 -2.593762 21.16057475  -49.5207555 -2.84796275 21.30005775  -49.460064 -2.58823775 21.811343  -49.56019525000001 -4.3188025 21.19922425  -49.994041 -4.17113975 20.98496725  -48.66092424999999 -3.48387075 20.41261525  -48.8368755 -3.88573425 20.76635525  -48.776184 -3.62600925 21.2776405  -48.2288155 -3.5948045 21.1985115  -48.60023275 -3.22414575 20.9239005  -48.72161575 -3.74359575 19.90133  -48.897567 -4.14545925 20.25507  -48.3501985 -4.1142545 20.175941  -48.289507 -3.8545295 20.68722625  -48.53954125 -2.96442075 21.43518575  -47.607364 -4.855572 20.725163  -47.91808974999999 -4.22518825 20.96183725  -48.15473249999999 -4.88677675 20.804292  -47.97878125 -4.48491325 20.450552  -48.46545825 -4.256393 21.04096625  -48.52614975 -4.516118000000001 20.529681  -48.702101 -4.9179815 20.883421  -49.01282675 -4.28759775 21.12009525  -49.2494695 -4.94918625 20.96255  -49.07351825 -4.54732275 20.60881  -47.25476325 -7.27808875 26.11146775  -47.6328735 -6.633894 25.585238  -45.9709285 -6.866969 25.42113775  -46.34903875 -6.22277425 24.894908  -46.344063 -5.230922 25.130552  -45.96595275 -5.87511675 25.65678175  -45.58784249999999 -6.519311500000001 26.1830115  -48.91670825 -7.04501375 26.275568  -48.9117325 -6.0531615 26.511212  -47.2497875 -6.2862365 26.34711175  -47.62789775 -5.64204175 25.820882  -48.538598 -7.689208499999999 26.80179775  -48.53362225 -6.69735625 27.03744175  -48.155512 -7.341551 27.5636715  -46.87167725 -6.93043125 26.8733415  -48.901781 -4.069457 26.9825  -47.24481175 -5.29438425 26.58275575  -47.622922 -4.6501895 26.056526  -48.90675675 -5.06130925 26.746856  -48.52367075 -4.71365175 27.50872975  -48.5286465 -5.705503999999999 27.27308575  -46.8667015 -5.938579000000001 27.1089855  -48.1455605 -5.3578465 28.0349595  -47.38934 -6.646236 29.087419  -47.76745025 -6.00204125 28.56118925  -46.48859125 -6.58277375 27.63521525  -48.15053625 -6.34969875 27.7993155  -47.772426 -6.9938935 28.32554525  -44.68709375 -6.45584925 24.73080775  -45.06520399999999 -5.8116545 24.204578  -46.34269999999999 -4.32434375 25.30872475  -46.64002825 -4.6724245 24.6750665  -47.91888725 -4.091692 25.6010405  -46.9359935 -4.113927 24.219581  -44.970206 -4.158397 21.456662  -44.67287775 -3.81031625 22.09032025  -45.95309974999999 -4.136162000000001 22.8381215  -44.3769125 -4.36881375 22.54580575  -43.783619 -4.5792305 23.6349495  -44.07958425 -4.020733 23.179464  -45.35980625 -4.346578750000001 23.92726525  -45.6557715 -3.78808125 23.47177975  -44.3755495 -3.4622355 22.7239785  -44.67424075 -4.7168945 21.9121475  -44.3782755 -5.275392 22.367633  -45.6571345 -4.6946595 23.293607  -44.08094725 -4.927311250000001 23.00129125  -45.36116925 -5.253157 23.7490925  -43.784982 -5.48580875 23.45677675  -44.08231025 -5.8338895 22.8231185  -45.063841 -4.90507625 24.38275075  -45.35844324999999 -3.4400005 24.105438  -43.782256 -3.672652250000001 23.81312225  -44.07822125 -3.11415475 23.35763675  -45.062478 -3.998498 24.5609235  -51.75978175 -7.78508625 19.83634575  -51.5263015 -7.59523975 20.5022445  -50.743058 -8.01752475 20.230929  -51.2935555 -8.1866305 20.8597325  -51.29282125 -7.405393249999999 21.16814325  -45.989047 -5.199362 18.920205  -46.39362625 -5.113414499999999 19.3714445  -46.609399 -5.865057999999999 19.27770625  -46.765043 -5.47326275 18.91348825  -47.541039 -5.7471635 18.9067715  -47.01397824999999 -5.7791105 19.72894575  -47.16962225 -5.38731525 19.36472775  -47.385395 -6.13895875 19.2709895  -47.229751 -6.530754 19.6352075  -46.79820549999999 -5.027467 19.822684  -48.161391 -6.4128595 19.26427275  -48.56597025000001 -6.326912 19.71551225  -48.72161425 -5.935116750000001 19.35129425  -48.3501975 -5.5752685 19.8092505  -47.78997425 -6.05301125 19.722229  -48.1945535 -5.96706375 20.1734685  -48.0389095 -6.358859000000001 20.5376865  -47.63433025 -6.4448065 20.086447  -48.
[...]
<PointData  Vectors="u"> 
<DataArray  type="Float64"  Name="u"  NumberOfComponents="3" format="ascii">7.9242631306317051e+01 -4.3076202476578558e+01 1.8874639189921950e+02  7.8633615252281743e+01 -4.2574643933523106e+01 1.8398446399668302e+02  7.8879200132099356e+01 -4.1252625731690301e+01 1.8900313054771024e+02  7.8803416840062283e+01 -4.7397876448027233e+01 1.8749029753913686e+02  7.9328413988792846e+01 -5.1431471647424132e+01 1.8651564941904056e+02  7.8406695750393965e+01 -4.6612932260173331e+01 1.8303854686919982e+02  7.9082503633749752e+01 -4.4833051311891651e+01 1.8696618478604705e+02  7.9232187574717898e+01 -3.9071460904969783e+01 1.8951632540015783e+02  7.8385909517799092e+01 -4.0289812741261549e+01 1.8435324270582086e+02  7.7626323463595583e+01 -4.2048252192442753e+01 1.8013807529616162e+02  8.0445149194534807e+01 -6.1369304821731738e+01 1.8344984811442967e+02  7.9662482871016110e+01 -5.5118675974689282e+01 1.8053049516607882e+02  7.9456731230934764e+01 -5.3777467144471927e+01 1.8586232448857001e+02  8.0000703610752566e+01 -5.5758598866641208e+01 1.8516808137900452e+02  7.9050291400041871e+01 -5.0592430239979301e+01 1.8174291276125101e+02  7.9602531890726837e+01 -4.8905054407212738e+01 1.8590288499339502e+02  7.9410890765964425e+01 -4.7085563542310723e+01 1.8748439685807261e+02  7.9457274463174215e+01 -4.8587171102600770e+01 1.8223091599808123e+02  7.9109932643989310e+01 -5.0075360149564510e+01 1.7765868693101589e+02  8.0482958051250165e+01 -3.2895863334910310e+01 1.9070420957939874e+02  7.9683709963014095e+01 -3.5323880752566346e+01 1.8539902026968647e+02  7.9557021054892559e+01 -4.0308500461917312e+01 1.8954916953371031e+02  7.9478257816821767e+01 -4.2731520030340718e+01 1.8735261971526739e+02  7.8978361279472978e+01 -4.4338472010259736e+01 1.8316183495865462e+02  7.9466192206717068e+01 -4.1929578650835921e+01 1.8397620930637700e+02  7.9158448878519835e+01 -3.7240482548839175e+01 1.8073387617111200e+02  7.9980018029279208e+01 -3.6462505031428648e+01 1.9002274519956333e+02  7.9047769886813001e+01 -3.7900439114668089e+01 1.8483662276380147e+02  7.7836358627386460e+01 -4.0694044062802377e+01 1.7180872492570847e+02  7.8495557660454338e+01 -3.9058729679232663e+01 1.7627683970696208e+02  7.9106444949975241e+01 -4.3713077547266366e+01 1.7937020381050488e+02  7.8320859311559985e+01 -4.5975533021996355e+01 1.7881035890714773e+02  7.8275870272331247e+01 -3.9596847340704727e+01 1.8032127770554501e+02  7.8476762283925837e+01 -4.5242677954700042e+01 1.7480259237939612e+02  7.7507212790502649e+01 -4.1351039529692208e+01 1.7584990046586972e+02  7.9270769377806729e+01 -7.0698252617813495e+01 1.8004395399724305e+02  7.7533900528273392e+01 -6.2880997223678989e+01 1.7725241180606224e+02  7.8838041824719880e+01 -6.9154021034969134e+01 1.8079376065756321e+02  7.7831493562487481e+01 -6.1724178851616088e+01 1.8475610083561949e+02  7.8402703964179992e+01 -5.3777757543439904e+01 1.7959374367547488e+02  7.8859072638812833e+01 -5.9231025599393853e+01 1.8533476567693751e+02  7.9188456414444786e+01 -6.7010067427862566e+01 1.8151267934619946e+02  7.8388510933557185e+01 -6.0693675003234603e+01 1.7756022050333792e+02  7.7792874943256223e+01 -5.5209540413529822e+01 1.7258907301987514e+02  7.7719407364790655e+01 -6.3599984855896757e+01 1.7702859868145745e+02  7.7118180391200198e+01 -5.6442839725520145e+01 1.7975266344524078e+02  7.6387117874350295e+01 -5.7319559562951525e+01 1.7262369555959464e+02  7.5432340260094534e+01 -5.8539029516083701e+01 1.7316588585796063e+02  7.7729639513250703e+01 -6.3711908846637634e+01 1.8464110392171270e+02  7.8070039367818509e+01 -5.4899098006640827e+01 1.8681101078019469e+02  7.7760897989981473e+01 -5.7584596565919334e+01 1.8664113788076634e+02  7.6387116060736929e+01 -5.8882927789353126e+01 1.8025974931422104e+02  7.7694580805042321e+01 -4.7462078401804078e+01 1.8174401123198521e+02  7.7680232120723701e+01 -5.1477829376763502e+01 1.8887690875319379e+02  7.7463375908276092e+01 -4.9996051118403294e+01 1.8120767537797599e+02  7.6214503326642017e+01 -5.3068660639771203e+01 1.8221929014550523e+02  7.5563034603706285e+01 -4.9373448285178490e+01 1.7594082328740265e+02  7.3967303966905234e+01 -4.9398746637609293e+01 1.6003330707530773e+02  7.2371790722960512e+01 -5.3595006798951744e+01 1.6832808701978939e+02  7.5723426160504829e+01 -5.2665373658324143e+01 1.6743888584663299e+02  7.6084150704398240e+01 -5.1715976596531910e+01 1.7457469024456378e+02  7.2606719764084446e+01 -5.0671880249334940e+01 1.6887485706845416e+02  7.3430975728794294e+01 -5.4446369987722328e+01 1.7672070440136517e+02  7.9273348458610215e+01 -5.8062686151953436e+01 1.7797713113388920e+02  8.0024109528987509e+01 -6.4733245461267529e+01 1.8250852431052522e+02  7.8207097558615757e+01 -6.9233982653990893e+01 1.7416652381950431e+02  7.7889554854210104e+01 -6.1453321898273508e+01 1.7092136000527944e+02  7.8497491305570989e+01 -6.7095093073376276e+01 1.7490514471093536e+02  7.7937451266098137e+01 -6.7666090232563477e+01 1.6881863239108350e+02  7.7121735913196531e+01 -6.3720946274344897e+01 1.7060889912766970e+02  7.6211786663599767e+01 -5.8433254515824828e+01 1.6632823791653664e+02  7.9253800766151656e+01 -6.4748883740090818e+01 1.7556344615299514e+02  7.7996287359497373e+01 -4.0727733547528963e+01 1.7827086735781705e+02  7.7632610675641374e+01 -3.6530931607372366e+01 1.8446051230072879e+02  7.6132573362262647e+01 -4.0074638867266756e+01 1.7371220855583778e+02  7.7269074330189142e+01 -3.7347620162078584e+01 1.7980165206511123e+02  7.5381421588519274e+01 -3.2160692566968102e+01 1.7999685032139973e+02  7.4770934267777832e+01 -3.5780798691623055e+01 1.7364338112834204e+02  7.4861386201266328e+01 -3.7890836066023375e+01 1.6590028944437782e+02  7.7140047562444536e+01 -4.5278618566453190e+01 1.7802430111103232e+02  7.4775682993363418e+01 -4.3162574665706423e+01 1.7195003480267772e+02  7.4269823064686378e+01 -4.3962374423833161e+01 1.6361840575669115e+02  7.5047728216318873e+01 -4.7673871084261748e+01 1.6429338098820389e+02  7.5592691238597610e+01 -4.7033999933055547e+01 1.7146625579283781e+02  7.6326879957090867e+01 -4.5602791723414043e+01 1.6712183147426060e+02  7.5428954143606475e+01 -4.1837449352561237e+01 1.6676876897374160e+02  7.3798020920644134e+01 -2.5081940607882640e+01 1.6552111733000601e+02  7.4351334073561361e+01 -3.1353457747919396e+01 1.6648604434601765e+02  7.5169341779627445e+01 -2.8917531219350309e+01 1.6862201248016223e+02  7.2450889880406535e+01 -2.7932839104678163e+01 1.7430349928183409e+02  7.5731115941741081e+01 -3.2676596177565493e+01 1.7476013463982406e+02  7.6387223493602136e+01 -3.2827496859316469e+01 1.7023501134101400e+02  7.5455862738328889e+01 -3.5372966244772982e+01 1.6828739731403314e+02  7.6386425574315368e+01 -3.9330859392875659e+01 1.6917692486486442e+02  7.7107826803355280e+01 -3.6705389721484195e+01 1.7123328112451426e+02  7.6872018840607240e+01 -3.7224267755924700e+01 1.7539517437702861e+02  7.7086425093929222e+01 -4.3271937323793829e+01 1.6963930193284497e+02  7.6762850046411657e+01 -4.4099059077603570e+01 1.7368453797953816e+02  7.3808924938859818e+01 -3.8766316164523296e+01 1.2547760212240108e+02  7.6575158026291589e+01 -3.9558311108117621e+01 1.3136383038921909e+02  7.6399402073993514e+01 -4.2853606997352287e+01 1.3449653962090937e+02  7.6607400091968614e+01 -4.4170667011699621e+01 1.3010346649170179e+02  7.8790102636862187e+01 -4.9423324230933893e+01 1.3257038930227219e+02  7.8797055436306010e+01 -4.4605604916711066e+01 1.3425686276120814e+02  7.8844302334767235e+01 -4.8367763362749010e+01 1.3741056690324592e+02  7.8875244423956460e+01 -4.7062481573403829e+01 1.4224600113115579e+02  7.8851433854493735e+01 -4.3234146573322839e+01 1.3894770134271263e+02  7.8733481566977574e+01 -3.9700231711217555e+01 1.3557612638842591e+02  8.4462334896408194e+01 -5.8300713489374189e+01 1.6248196765826566e+02  8.5004036260572605e+01 -5.4144376945963486e+01 1.5577879354794734e+02  8.4729603166764988e+01 -5.3388805593211444e+01 1.4818611110000802e+02  8.1272969887517576e+01 -5.1955784393485558e+01 1.5077774653830988e+02  8.1115530610535686e+01 -4.7537451411714791e+01 1.4734841011646188e+02  8.1082464646774540e+01 -4.9016386516968673e+01 1.4212692152366708e+02  8.3443154834107872e+01 -5.0976919946595658e+01 1.4198593858649707e+02  8.3033391512336976e+01 -5.0010426998942137e+01 1.4673738174185007e+02  8.3063655886310428e+01 -4.9205165242973841e+01 1.5193702589063170e+02  8.4355675566809708e+01 -4.0202133039370715e+01 1.4654538523255056e+02  8.1879972680777641e+01 -4.5702592823836163e+01 1.5005901903770985e+02  8.3751748391205069e+01 -4.5862720350815081e+01 1.4468485702425616e+02  8.0894052088958844e+01 -4.3539221289685521e+01 1.4384051787262067e+02  8.1002679931748361e+01 -4.5121836651509383e+01 1.3885856435018479e+02  8.0998531371260242e+01 -5.0193934813409250e+01 1.3706679648364886e+02  8.1017756419208780e+01 -3.9773607041566386e+01 1.4009611581179257e+02  7.6770159807617688e+01 -4.0602736627633554e+01 1.2668469985569521e+02  7.8785423598839685e+01 -4.5594824643898228e+01 1.2936760654114565e+02  7.8694714245371046e+01 -4.2075249327483007e+01 1.2611962214250430e+02  7.8703356926998083e+01 -4.1010744107240328e+01 1.3083401177416729e+02  8.5061854142333843e+01 -3.9939263446121998e+01 1.3972224541628523e+02  8.0962523016119135e+01 -4.6222842255091827e+01 1.3368739909197981e+02  8.3090053498993967e+01 -4.6243334326790212e+01 1.3771590559421705e+02  8.2982917629716340e+01 -4.1370784663578327e+01 1.3460422807520536e+02  8.1064989235917295e+01 -4.1295410762057827e+01 1.3500183028687505e+02  8.0930768457335972e+01 -4.2458314576487133e+01 1.3025545849663078e+02  8.4567393212033224e+01 -4.5341010362595895e+01 1.2606443677801057e+02  8.1994403741677033e+01 -4.3162099280814395e+01 1.3128957181373627e+02  8.0250663418267166e+01 -4.7727845119411292e+01 1.3277170591164975e+02  8.0688152801697527e+01 -4.7157799541618026e+01 1.2867834028569243e+02  8.0731988177599192e+01 -4.3599952328209596e+01 1.2551954489473431e+02  7.6644100850553158e+01 -2.7435916270514941e+01 1.7060227472975626e+02  7.5684484803580318e+01 -2.7008625418723870e+01 1.7340353054604611e+02  7.7793823952026727e+01 -2.8720271712419450e+01 1.7888644541496581e+02  7.7417608583486626e+01 -3.1289614522425094e+01 1.7174971240182396e+02  7.8081652381875458e+01 -2.9216185709136393e+01 1.7598529914445996e+02  7.7000058361133085e+01 -3.0838320652364505e+01 1.7465342856872297e+02  7.8383208751697566e+01 -2.9689564961867838e+01 1.7313045403043463e+02  7.5876336918758810e+01 -2.3552645762389432e+01 1.6895834518251604e+02  7.7664031846128154e+01 -2.5812965902556240e+01 1.7195545418655479e+02  7.7340740242181312e+01 -2.5275456568569297e+01 1.7472365316615492e+02  7.6952989881203621e+01 -2.2070334223655852e+01 1.7055943101763393e+02  7.9455755954465559e+01 -3.1128720253662561e+01 1.8137217260187128e+02  7.9279748449967371e+01 -3.0622671107486319e+01 1.8466125631904606e+02  7.8777022838796682e+01 -3.3313082019206341e+01 1.7703666092665577e+02  7.8550821293413875e+01 -3.2950351535782737e+01 1.7994392562257656e+02  7.9923742420263636e+01 -2.8781820518851401e+01 1.8613578435332582e+02  7.8747294352357997e+01 -2.6905407738251206e+01 1.8026170077045214e+02  7.9584689087612290e+01 -2.5101952091707727e+01 1.8154659105769895e+02  7.9008320089612084e+01 -2.7486862789600817e+01 1.7735503135485123e+02  7.8817811277892432e+01 -1.8687834147638451e+01 1.7299595340380574e+02  7.8637324024825205e+01 -2.4117464925505910e+01 1.7325551228856816e+02  7.9201141228396963e+01 -2.1760922885507743e+01 1.7725518214459973e+02  7.8325797633800292e+01 -2.3520594797404950e+01 1.7599946279570642e+02  7.7918906953430763e+01 -2.0387984566668248e+01 1.7189167841662484e+02  7.8129258461210711e+01 -3.5203159059461825e+01 1.7265153465906934e+02  7.7835862338151486e+01 -3.4959581901870386e+01 1.7558475483872462e+02  8.0185773608691662e+01 -3.1067077379874561e+01 1.8168648276130327e+02  7.9530994669603842e+01 -3.3196100273375968e+01 1.7731660071716638e+02  7.9141191367344291e+01 -2.9595540261162927e+01 1.7339057149082302e+02  7.9880077013741726e+01 -2.9515831280969056e+01 1.7363792147997961e+02  7.9780008583877461e+01 -2.7393844214232203e+01 1.7758566680075651e+02  8.0765568619220403e+01 -3.5001489588281999e+01 1.8605103424568819e+02  7.9879133223258208e+01 -3.7096168705193861e+01 1.8109516292477940e+02  8.0778505140085159e+01 -3.6947117912562312e+01 1.8149759479482330e+02  8.0299618008230425e+01 -3.3130007791433158e+01 1.7748349261595823e+02  7.9354339891405147e+01 -2.4016503354286975e+01 1.7354635718964573e+02  8.0796409791207893e+01 -4.0471896100420068e+01 1.7283783111142714e+02  8.0357506665577958e+01 -3.4975653369323837e+01 1.7344970738979856e+02  8.0084885507566042e+01 -4.0599909081765020e+01 1.7260468251188360e+02  8.0827382775174485e+01 -3.8794323294070217e+01 1.7715168263185839e+02  7.9632598992356520e+01 -3.5066661296377269e+01 1.7318623949715283e+02  7.9966510112330397e+01 -3.8904485724374375e+01 1.7689190216270563e+02  7.9329213865663078e+01 -4.0613183939883882e+01 1.7233630135640968e+02  7.8869658815534606e+01 -3.5126726930309886e+01 1.7291699615651407e+02  7.8585683952330697e+01 -4.0638268603918874e+01 1.7207046317847727e+02  7.9198763139437020e+01 -3.9014222746501297e+01 1.7656557572119743e+02  7.6744936892028107e+01 -3.5626916235412601e+01 1.2801906000778749e+02  7.6626409319028710e+01 -3.4485909189428092e+01 1.3303576169427535e+02  7.8684953831920311e+01 -3.5708628463671737e+01 1.3209999109581548e+02  7.8761169282267730e+01 -3.4353232019175429e+01 1.3728398623546835e+02  7.8776724657323044e+01 -2.8863557344702677e+01 1.3847831951953103e+02  7.8763379045133462e+01 -3.0574561537595912e+01 1.3344280074944476e+02  7.8708672217991122e+01 -3.2013783870043831e+01 1.2845858780737908e+02  7.4264932892288499e+01 -3.4369339957016763e+01 1.2825762866555237e+02  7.4632898301656638e+01 -2.9695923229137982e+01 1.3016342318047833e+02  7.6529482600616490e+01 -3.0836808009031053e+01 1.2949827962538805e+02  7.6646722700220877e+01 -2.9362221193759733e+01 1.3427925467164084e+02  7.5870447964004086e+01 -3.3592025361941054e+01 1.2338008653890714e+02  7.4852481039291192e+01 -3.0839209423910741e+01 1.2639867739905068e+02  7.4639385483808567e+01 -3.0965836620577321e+01 1.2188217064331535e+02  7.6513326289815538e+01 -3.2211198988922774e+01 1.2474012271205855e+02  7.3759308349712981e+01 -1.9619674313737764e+01 1.2962949956981240e+02  7.6627159095812075e+01 -2.6057724270745133e+01 1.3042883668169861e+02  7.6544602495745082e+01 -2.4214504480594268e+01 1.3503711187681643e+02  7.4164703288118133e+01 -2.4661906280467370e+01 1.3042269879399328e+02  7.5785583185622059e+01 -2.2972499189371469e+01 1.2578303810909601e+02  7.4801802340274151e+01 -2.7007608269102786e+01 1.2730123044925843e+02  7.6400527961725928e+01 -2.7575070100947741e+01 1.2596058957489838e+02  7.4643664677061579e+01 -2.4844626361606888e+01 1.2314528768951212e+02  7.3712184135740785e+01 -2.5922174028338191e+01 1.1298958328261472e+02  7.2824390465903917e+01 -2.6341761254189635e+01 1.1894092212340016e+02  7.6175339114796145e+01 -2.8854766219564794e+01 1.2147417360600917e+02  7.2935968769759725e+01 -2.8556007615753948e+01 1.2474747466457224e+02  7.2631495599743246e+01 -2.7703883885162469e+01 1.1861511963993951e+02  8.1120424591718944e+01 -3.5521366654090876e+01 1.3626470995007637e+02  8.1028753508130720e+01 -3.4077466660160830e+01 1.4200503682798103e+02  7.8804325749708042e+01 -2.3808599968187853e+01 1.3936175616329626e+02  7.8822182467058198e+01 -2.7107627765037375e+01 1.4302887848609654e+02  7.6372051793874576e+01 -2.2184009688100854e+01 1.3920071264796391e+02  7.8865564771640862e+01 -2.5071860348201216e+01 1.4755808045974814e+02  8.4382665975177332e+01 -3.2812339943220636e+01 1.6915155289532458e+02  8.4997161539254762e+01 -2.9704336654928461e+01 1.6222104416687219e+02  8.1278869637328683e+01 -2.8448669374569750e+01 1.5676354097843009e+02  8.4845153410528440e+01 -3.0023305809613969e+01 1.5475574512036934e+02  8.3475896524345615e+01 -2.8754402803470619e+01 1.4815334595153723e+02  8.3034391641448025e+01 -2.7075060973257013e+01 1.5267283947903940e+02  8.1095616733419448e+01 -2.6870712453059525e+01 1.4787957712104475e+02  8.1119727565764805e+01 -2.4631260835642145e+01 1.5274928216325662e+02  8.3056796135099802e+01 -2.5434708843710521e+01 1.5759481412443154e+02  8.4849805989115893e+01 -3.3350944386308505e+01 1.6140115041584443e+02  8.3076063099896032e+01 -3.5440801272259087e+01 1.5575036353582138e+02  8.1204591245020040e+01 -3.0635486902110568e+01 1.5172880923519105e+02  8.3136163060959419e+01 -3.2096800009424676e+01 1.5155484416581137e+02  8.0993810341740215e+01 -3.2391893354912725e+01 1.4668517434835536e+02  8.3800558706767788e+01 -3.4480078223299905e+01 1.4777514031319996e+02  8.2000739344651237e+01 -3.7600471422433507e+01 1.5207864176616542e+02  8.1010092958144511e+01 -2.8805126194618087e+01 1.4309662021379165e+02  8.0894843285316227e+01 -2.1207742433510891e+01 1.4865850326661177e+02  8.3773295874571033e+01 -2.3285701129712741e+01 1.4997650683392320e+02  8.1879299824309740e+01 -2.2272315250103588e+01 1.5519956611355056e+02  8.1003767448878804e+01 -2.3528389913910754e+01 1.4403279077100572e+02  7.7393629370410949e+01 -6.6880308899335489e+01 1.7025047778358382e+02  7.5031537969764571e+01 -6.1233962019559094e+01 1.6643908643795663e+02  7.6291410695369265e+01 -6.5044744500211422e+01 1.6394454619165074e+02  7.4777883752269517e+01 -6.2268986332954142e+01 1.5862555654275025e+02  7.4448713595419505e+01 -5.5970481539875763e+01 1.6012925793643456e+02  8.6454104440767324e+01 -5.1112286883115871e+01 1.8530326598866898e+02  8.4234185648190788e+01 -4.8091541774469846e+01 1.8239481987793926e+02  8.3309571053592919e+01 -5.4688184454816202e+01 1.7919049800087404e+02  8.4301642608428807e+01 -5.4771688697029255e+01 1.8548903079301266e+02  8.3089419487962587e+01 -5.7283504169030543e+01 1.8441385585030721e+02  8.2267189833541650e+01 -5.1793535056152621e+01 1.7647510761570786e+02  8.3005460077876776e+01 -5.0960193628945717e+01 1.8240735209219895e+02  8.2424072089038987e+01 -5.7236071351984968e+01 1.7861853101658411e+02  8.1890783545259666e+01 -5.7724868031296516e+01 1.7337289871191169e+02  8.2809989749430486e+01 -4.5388232794799450e+01 1.7908391457531323e+02  8.1430556651409660e+01 -5.9431672894465599e+01 1.7796928927824410e+02  8.0316287233933679e+01 -5.6365191832185580e+01 1.7544993808609036e+02  8.0509341252710186e+01 -5.5748656923402422e+01 1.8139761748835039e+02  8.0655644640183070e+01 -5.0299877509688713e+01 1.7852769180343230e+02  8.1417808055583237e+01 -5.4152036630188604e+01 1.7602446581411655e+02  8.0395204558664403e+01 -5.1257653950435689e+01 1.7326061194733833e+02  8.0094591237357221e+01 -5.2057528830412323e+01 1.6810991554294725e+02  8.0986009551549387e+01 -5.4878813129512189e+01 1.7077869761418222e+02  8.0180802777210005e+01 -6.1783914887443167e+01 1.7766923421622087e+02  7.9838310868397301e+01 -6.2122670499016174e+01 1.7207663273401809e+02  8.0969039672919052e+01 -5.9892593364427952e+01 1.7276663974111247e+02  8.0018756943843201e+01 -5.6957199026412027e+01 1.7021638699083570e+02  8.2184014468650872e+01 -5.9762581654932497e+01 1.8388015770997367e+02  8.1791696045423009e+01 -5.3445908151763696e+01 1.8193968688627763e+02  7.9265497768038884e+01 -6.2497077855070074e+01 1.6180966205771142e+02  8.0564112362910393e+01 -6.0333764174320550e+01 1.6761696310749838e+02  7.9711513889809751e+01 -5.7481003533633547e+01 1.6509682960052237e+02  7.9555662333923564e+01 -6.2367736337352817e+01 1.6684568740689488e+02  8.1403167997211554e+01 -4.8973165060428812e+01 1.7362743757219314e+02  8.0480435511814804e+01 -4.6440072482988647e+01 1.7068972918908852e+02  8.0808580770672847e+01 -4.5197589919501496e+01 1.7574188558115543e+02  8.1799418175663561e+01 -4.7894609157672285e+01 1.7907186964266685e+02  8.1755485382351324e+01 -4.2884683216595796e+01 1.7600883565383756e+02  8.4406547021228661e+01 -4.5575965041507075e+01 1.8779334481186697e+02  8.2943917408690254e+01 -4.9198823062184893e+01 1.8807507366164009e+02  8.3314833917286037