<?xml version="1.0"?>
<VTKFile type="UnstructuredGrid"  version="0.1"  >
<UnstructuredGrid>
<Piece  NumberOfPoints="4654" NumberOfCells="21245">
<Points>
<DataArray  type="Float64"  NumberOfComponents="3"  format="ascii">-48.891708 8.046097 26.093318  -47.61208475 8.076234749999999 25.25555975  -47.61322075 7.18453 25.498465  -47.9126225 7.482019999999999 24.83600475  -46.933537 6.917942999999999 23.5786915  -46.3335975 7.214667749999999 24.66070675  -46.63299925 7.512157749999999 23.9982465  -46.63413525 6.620452999999999 24.24115175  -46.3347335 6.322963 24.903612  -46.3324615 8.106372499999999 24.4178015  -44.975366 5.789789 21.064065  -44.3754265 6.08651375 22.14608025  -44.67482825 6.38400375 21.48362  -45.9544515 6.353866 22.32137825  -45.354512 6.650590749999999 23.4033935  -45.65391375 6.94808075 22.74093325  -44.3742905 6.978218500000001 21.903175  -44.07488875 6.680728500000001 22.56563525  -43.775487 6.3832385 23.2280955  -44.67596425000001 5.492298999999999 21.72652525  -45.65504975 6.056375999999999 22.9838385  -44.37656250000001 5.194808999999999 22.3889855  -44.07602475 5.78902375 22.8085405  -43.777759 4.599829 23.713906  -43.776623 5.49153375 23.47100075  -44.07716075 4.897319 23.05144575  -45.355648 5.758886 23.64629875  -45.05624625 5.461396 24.308759  -45.05511025 6.353100749999999 24.06585375  -43.773215 8.166648 22.742285  -43.774351 7.27494325 22.98519025  -44.07375275 7.57243325 22.32273  -45.353376 7.5422955 23.16048825  -45.05397425 7.2448055 23.8229485  -45.05283825 8.136510250000001 23.58004325  -47.23539575 6.83211325 26.25118675  -47.26319375 7.79191875 25.9668745  -45.6068815 6.577935 26.12474325  -45.9569085 5.97054625 25.65633375  -45.9847065 6.93035175 25.3720215  -45.6346795 7.5377405 25.840431  -45.5790835 5.6181295 26.4090555  -48.51388300000001 7.69368025 26.84603975  -48.13605800000001 7.3412635 27.5987615  -46.85757075000001 6.4796965 27.0039085  -46.88536875 7.439502 26.71959625  -47.380408 6.63643 29.104205  -46.12971875 6.7346685 28.22503975  -46.47974575000001 6.12727975 27.75663025  -46.50754375 7.087085249999999 27.472318  -45.2568545 7.18532375 26.59315275  -45.2290565 6.22551825 26.877465  -44.8790295 6.832907000000001 27.3458745  -47.758233 6.98884675 28.35148325  -43.42773200000001 5.20721775 24.1823155  -44.67842125 5.10897925 25.06148075  -44.70621925 6.06878475 24.7771685  -44.35619225000001 6.6761735 25.245578  -44.32839425 5.716368 25.52989025  -43.077705 5.8146065 24.650725  -42.377651 7.029384 25.587544  -42.727678 6.42199525 25.1191345  -43.97836725000001 6.32375675 25.99829975  -44.00616525 7.28356225 25.7139875  -43.62834025 6.9311455 26.46670925  -46.8838935 8.5061135 26.39329025  -48.13458275000001 8.407875000000001 27.2724555  -48.51240775 8.76029175 26.51973375  -48.1331075 9.474486499999999 26.9461495  -46.50459325 9.220308249999999 26.819706  -47.75528250000001 9.12206975 27.69887125  -47.37745750000001 8.769653 28.451593  -46.12676825 8.867891499999999 27.57242775  -44.876079 8.96613 26.6932625  -46.5060685 8.15369675 27.146012  -47.75675775000001 8.055458250000001 28.02517725  -45.25537925 8.251935249999999 26.26684675  -46.1282435 7.80128 27.89873375  -44.87755425 7.8995185 27.0195685  -47.37893275 7.703041499999999 28.777899  -47.374507 10.902876 27.798981  -46.125293 9.934502999999999 27.24612175  -47.37598225000001 9.836264499999999 28.125287  -47.75380725 10.18868125 27.37256525  -43.626865 7.997757 26.14040325  -33.568867 18.219115 40.953572  -30.3161035 18.91314 39.1084825  -31.003247 17.314255 39.331713  -31.684586 18.5605625 38.1873465  -32.8817235 19.818 40.7303415  -28.437627 16.409395 37.709854  -29.118966 17.6557025 36.5654875  -50.196006 9.069295 23.110795  -48.88987874999999 9.037205 22.318225  -48.59030825 8.84363325 23.0186675  -48.890846 8.249418500000001 22.5991125  -47.585686 7.429542 22.08743  -47.58471874999999 8.217328500000001 21.8065425  -47.28514825 8.02375675 22.506985  -46.9846105 8.617971499999999 22.92654  -47.284181 8.81154325 22.2260975  -47.5837515 9.005115 21.525655  -45.97998825000001 7.203880249999999 21.9953025  -44.97439875000001 6.5775755 20.7831775  -45.979021 7.991666749999999 21.714415  -45.6794505 7.798095 22.4148575  -44.673861 7.17179025 21.2027325  -44.9734315 7.365361999999999 20.50229  -46.28052599999999 6.6096655 21.5757475  -46.27955875 7.397451999999999 21.29486  -44.971497 8.940935 19.940515  -44.6719265 8.747363249999999 20.6409575  -45.97805375 8.77945325 21.4335275  -44.97246425 8.1531485 20.2214025  -44.67289375 7.959576749999999 20.921845  -45.67848325 8.585881499999999 22.13397  -44.372356 8.553791499999999 21.3414  -46.2785915 8.185238500000001 21.0139725  -46.27762425 8.973025 20.733085  -44.07278549999999 8.360219749999999 22.0418425  -45.37891275 8.392309749999999 22.8344125  -44.37332325 7.766005 21.6222875  -45.559506 14.101789 29.350825  -44.977475 14.42215175 30.0380935  -43.85321975 13.80425175 29.2282885  -45.195738 13.71900675 30.04733225  -44.83197 13.3362245 30.7438395  -44.613707 14.0393695 30.73460075  -43.48945175 13.4214695 29.92479575  -42.1469335 13.5067145 29.105752  -43.27118875 14.1246145 29.915557  -44.395444 14.7425145 30.725362  -44.104434 12.57066 32.136854  -43.12568375 13.03868725 30.621303  -43.886171 13.273805 32.12761525  -42.76191575 12.655905 31.31781025  -41.4193975 12.74115 30.4987665  -42.90742075 13.74183225 30.61206425  -41.7831655 13.12393225 29.80225925  -42.54365275 13.35905 31.3085715  -43.667908 13.97695 32.1183765  -44.249939 13.65658725 31.431108  -44.031676 14.35973225 31.42186925  -44.468202 12.95344225 31.44034675  -43.231382 15.38324 32.099899  -42.10712675000001 14.76534 31.290094  -42.68915775000001 14.44497725 30.6028255  -42.32538975 14.062195 31.29933275  -41.5649025 13.82707725 29.7930205  -41.2011345 13.444295 30.48952775  -40.9828715 14.14744 30.480289  -43.449645 14.680095 32.10913775  -43.813413 15.06287725 31.4126305  -38.734361 12.91164 28.860679  -39.85861625 13.52954 29.670484  -40.44064725 13.20917725 28.9832155  -40.07687925 12.826395 29.67972275  -39.888716 14.6366695 31.6332545  -40.5784455 14.91175825 30.6278105  -40.43579375 14.39205475 31.05677175  -41.56004900000001 15.00995475 31.86657675  -41.155623 15.774273 32.01409825  -41.01297125 15.2545695 32.4430595  -42.1372265 15.8724695 33.2528645  -40.60854525 16.01888775 32.590581  -40.4658935 15.49918425 33.01954225  -39.45419025 14.29385825 29.8180055  -38.329935 13.67595825 29.0082005  -39.3115385 13.77415475 30.24696675  -38.9071125 14.538473 30.39448825  -37.925509 14.4402765 29.155722  -36.16419 17.873207 38.841986  -33.0424365 18.366281 37.1054195  -34.231598 19.5998485 39.7004755  -34.8665285 18.046161 39.897779  -33.677367 16.8125935 37.302723  -32.3797055 16.9855475 38.358516  -31.190544 15.75198 35.76346  -30.4954245 17.326995 35.5922905  -45.9835705 7.8220565 25.12911625  -44.70508325 6.9604895 24.53426325  -43.426596 6.0989225 23.93941025  -43.424324 7.882332 23.45359975  -44.70394725 7.85219425 24.291358  -44.35505625 7.56787825 25.00267275  -43.42546 6.99062725 23.696505  -43.075433 7.598016 24.1649145  -42.726542 7.313700000000001 24.87622925  -43.076569 6.706311250000001 24.40781975  -36.161274 14.06959 31.53425  -35.56140225 14.296771 32.07606525  -35.8617765 14.80617525 31.50891125  -36.79294375 14.853284 32.8132885  -37.4246135 15.636978 34.092327  -36.193072 15.080465 33.35510375  -36.49344625000001 15.58986925 32.78794975  -35.562279 15.5427605 31.4835725  -35.26190475 15.03335625 32.0507265  -34.96153049999999 14.523952 32.6178805  -42.635804 12.73156075 28.728347  -43.12592775 12.970396 27.89496525  -43.1246745 11.956407 28.350942  -44.34209025 13.029098 28.8508835  -40.689843 9.811025000000001 27.351059  -41.41838825000001 11.65886975 28.2284055  -40.20097250000001 10.58617875 27.728464  -40.69109625 10.825014 26.89508225  -40.69234950000001 11.839003 26.4391055  -41.4196415 12.67285875 27.77242875  -40.20222575 11.60016775 27.27248725  -39.712102 11.3613325 28.105869  -40.92951775 12.4340235 28.6058105  -41.90725875 10.883716 27.8510005  -41.908512 11.897705 27.39502375  -41.90976525 12.911694 26.939047  -39.71335525000001 12.3753215 27.64989225  -39.22448475 13.15047525 28.02729725  -39.7146085 13.3893105 27.1939155  -40.930771 13.4480125 28.14983375  -40.203479 12.61415675 26.8165105  -39.2232315 12.13648625 28.483274  -45.703341 10.62991325 27.6870005  -46.11842475 10.8940155 26.913276  -44.454127 9.66154025 27.13414125  -44.86921075 9.925642499999999 26.36041675  -44.8623425 10.885155 26.027571  -44.44725875 10.62105275 26.8012955  -44.032175 10.3569505 27.57502  -43.204913 8.69316725 26.581282  -41.955699 7.72479425 26.02842275  -42.37078275 7.9888965 25.25469825  -42.3639145 8.948409 24.9218525  -43.19804475 9.652679750000001 26.24843625  -41.94883075 8.684306750000001 25.695577  -41.53374700000001 8.420204500000001 26.4693015  -42.782961 9.3885775 27.02216075  -43.61999675 8.957269499999999 25.8075575  -42.350178 10.867434 24.256161  -41.93509425 10.60333175 25.0298855  -43.1911765 10.61219225 25.9155905  -42.35704625 9.9079215 24.58900675  -41.9419625 9.64381925 25.36273125  -42.77609275 10.34809 26.689315  -41.5200105 10.3392295 25.80361  -43.6131285 9.916782 25.47471175  -43.60626025 10.8762945 25.141866  -41.10492675 10.07512725 26.5773345  -42.361009 10.08398775 27.4630395  -41.52687875 9.379716999999999 26.13645575  -41.111795 9.115614750000001 26.91018025  -50.198776 5.524272 24.198457  -48.8911055 4.77018275 23.57782075  -48.59352175000001 5.29316125 24.07731925  -48.8929235 5.59065125 23.414859  -47.587071 5.657030499999999 22.631261  -47.585253 4.836562 22.79422275  -47.28766925000001 5.3595405 23.29372125  -46.98826750000001 5.0620505 23.9561815  -47.28585125000001 4.539072 23.456683  -47.583435 4.0160935 22.9571845  -46.2794005 4.90294125 22.01062475  -44.973548 4.9693205 21.22702675  -45.97999875000001 4.60545125 22.673085  -44.67414625000001 4.6718305 21.889487  -44.97173 4.148852 21.3899885  -46.2775825 4.08247275 22.1735
[...]
<PointData  Vectors="u"> 
<DataArray  type="Float64"  Name="u"  NumberOfComponents="3" format="ascii">7.3749009224496774e+01 3.8523208595371635e+01 1.2520009871073282e+02  7.6548117982051778e+01 4.1704999865948921e+01 1.3045800104150922e+02  7.6511050795875576e+01 3.7037097579527156e+01 1.3191547224147050e+02  7.6367956906704265e+01 4.0673734515165236e+01 1.3486850572308336e+02  7.8853585119878829e+01 4.2113221416730127e+01 1.4358476824420259e+02  7.8779473727647712e+01 3.9651113073983375e+01 1.3556369741012671e+02  7.8850336280259128e+01 4.3406939826588655e+01 1.3866196205375678e+02  7.8825969028181021e+01 3.8295146073481227e+01 1.4033705262626211e+02  7.8752561627626505e+01 3.4738409203613145e+01 1.3696364620024659e+02  7.8734436232502816e+01 4.4404486431449740e+01 1.3386752589290714e+02  8.4375890035165639e+01 4.5561520052481832e+01 1.6605678758013383e+02  8.4822055235517425e+01 4.1727578299013103e+01 1.5195633313618623e+02  8.4910242595400746e+01 4.5347340903737027e+01 1.5845265233156445e+02  8.1301719465956396e+01 4.3575563982741294e+01 1.5323743886381240e+02  8.1085992373273015e+01 4.1057529135263074e+01 1.4444151152978506e+02  8.1199280378605224e+01 4.5140991665378877e+01 1.4794332081799854e+02  8.2855343374116771e+01 4.7264507829069451e+01 1.5255150196260746e+02  8.2948775114073314e+01 4.3461554628451239e+01 1.4873327141397243e+02  8.3410985954983147e+01 4.0008716515415834e+01 1.4558065945118321e+02  8.4831764028863162e+01 4.1729171543067757e+01 1.5948936747699472e+02  8.1193115176536352e+01 3.9382631624708125e+01 1.4962219599320827e+02  8.3004957026989899e+01 3.7303057912135174e+01 1.5527389740632171e+02  8.3026390206538977e+01 3.8434667007823947e+01 1.4996599160555584e+02  8.4287755287444298e+01 2.8907916978612203e+01 1.4925004890864264e+02  8.3750467293725492e+01 3.4489521752965061e+01 1.4740386126315354e+02  8.1898362772346744e+01 3.3724666022331959e+01 1.5288051246502164e+02  8.0976291460217880e+01 3.5586221257490067e+01 1.4586149881348970e+02  8.0969242522817680e+01 3.1914948311013958e+01 1.4221560223613940e+02  8.1044845191728626e+01 3.7185684133701514e+01 1.4112998605839229e+02  8.4125608654719841e+01 5.1352407036946033e+01 1.4293519822342321e+02  8.3710212020653913e+01 4.5628754831047274e+01 1.4436093597308198e+02  8.1803032705382947e+01 4.9217355832656310e+01 1.4855940988295495e+02  8.0957629159494942e+01 4.6454398704677189e+01 1.4272923346816569e+02  8.0979972043167294e+01 4.2376595056765794e+01 1.3946424265784739e+02  8.0994363640778928e+01 4.7413019393265756e+01 1.3747855219177774e+02  7.6628312031196430e+01 3.3373251864908681e+01 1.2858612916514903e+02  7.6729089135207332e+01 3.8241030052610199e+01 1.2715888794912462e+02  7.8734777583531979e+01 3.2349841180500391e+01 1.2861922219128115e+02  7.8717988775729182e+01 3.0982580380581382e+01 1.3321434170808271e+02  7.8741935640135722e+01 3.6097277932012581e+01 1.3219610309391882e+02  7.8688623647573792e+01 3.7151332964082222e+01 1.2750929896573159e+02  7.8693322845620713e+01 2.7515238190336198e+01 1.2940606992899407e+02  7.5808002115320420e+01 3.3837421439953850e+01 1.2314178086005954e+02  7.4673238549589328e+01 3.1014096105824382e+01 1.2160242399691020e+02  7.6395265068111897e+01 3.0056910763498173e+01 1.2525876456325854e+02  7.6687374088226221e+01 3.4414862108081202e+01 1.2408575428978119e+02  7.3748860104415797e+01 2.5679307830087694e+01 1.1293876309735968e+02  7.6454343720138255e+01 2.8131454966141565e+01 1.1794446861782509e+02  7.6221195625347690e+01 2.6938331744408515e+01 1.2178400784313975e+02  7.6455457623606534e+01 3.1195326111301615e+01 1.2113691300457347e+02  7.8716956794588015e+01 3.3548674563730287e+01 1.2427553926623125e+02  7.8723095807662304e+01 2.8993376875000333e+01 1.2516418970268133e+02  7.8613095939533906e+01 3.0210298119076278e+01 1.2101948006300674e+02  7.2850002312330560e+01 2.7860114163341681e+01 1.1847367046131279e+02  8.5105604818986436e+01 2.8843791528810755e+01 1.4251314069151613e+02  8.1252822235921187e+01 2.8031876679222446e+01 1.3785697695448223e+02  8.0967084550294913e+01 3.3566426986058723e+01 1.3711593609214438e+02  8.0782331194357127e+01 3.5020547465961151e+01 1.3257624145490121e+02  8.1122371476388338e+01 2.9763002775714625e+01 1.3329290950437542e+02  8.2949120923786055e+01 3.0992793353353687e+01 1.3744479646652749e+02  8.4300258787480587e+01 3.5528895437104843e+01 1.2929718886493239e+02  8.1886402256517385e+01 3.3078318531141250e+01 1.3433831396113854e+02  8.0881516206705456e+01 3.1277462272166467e+01 1.2884813390316782e+02  8.0804446767412784e+01 3.6266669357827887e+01 1.2787120890656846e+02  8.0915088241021408e+01 3.2516229510595387e+01 1.2425379780753958e+02  7.6828385224646340e+01 3.9617816046705578e+01 1.2264234822635370e+02  7.7383254730637347e+01 3.6850121946102021e+01 1.1973390705247178e+02  7.5730034092952508e+01 4.1673891252019921e+01 1.2056413631362196e+02  7.4550801638063945e+01 4.2995816478820736e+01 1.1790134844010031e+02  7.6548872670309237e+01 4.0674063802127243e+01 1.1821592995783645e+02  7.4863393046829628e+01 3.8544668686505126e+01 1.1581671381924204e+02  7.4634774019722457e+01 3.4766398954742364e+01 1.1279937666090072e+02  7.6583268916654575e+01 3.7183639672515383e+01 1.1570442068038024e+02  7.8629555310436388e+01 3.9741549733908187e+01 1.1842047402575461e+02  7.6700550497117263e+01 3.6005883756935383e+01 1.1980591192544524e+02  7.4935592164806337e+01 3.3388650293351958e+01 1.1747096217467299e+02  7.8670305923949300e+01 3.8589360124210231e+01 1.2294131327677675e+02  7.6575781288933911e+01 3.2709887782046849e+01 1.1699291819151640e+02  7.8632243798525806e+01 3.5069049245433540e+01 1.1996136923072714e+02  7.4272858073784008e+01 3.0330118603155132e+01 1.1343281942394444e+02  7.3740009735697910e+01 4.2213248687803237e+01 1.0780503750052050e+02  7.6443021873767023e+01 4.1425513560094736e+01 1.1396117593611015e+02  7.4218599786673821e+01 3.8776376137926668e+01 1.1083339073957760e+02  7.2554325204073180e+01 4.3876480241426222e+01 1.1337782325603895e+02  8.0905920086653140e+01 3.7595743121720204e+01 1.2304433509340090e+02  7.3921217720546778e+01 2.2470830050357964e+01 5.0512386341302900e+01  7.8426455396444126e+01 2.3790473359048455e+01 4.9237251482943009e+01  7.8392432459561761e+01 2.2742599792035985e+01 5.1692903895614698e+01  7.8392069917665467e+01 2.5564460550252850e+01 5.2605015814915646e+01  7.3932917656720520e+01 2.3991402594497419e+01 4.7844516757035834e+01  8.3296901762754104e+01 2.2913017568775096e+01 5.2796303368540656e+01  8.2908064937205936e+01 2.6112179646271841e+01 5.3330280398168505e+01  7.4093141383965929e+01 5.4155363029293561e+01 1.3804332931512613e+02  7.6789165658439799e+01 5.8078734510142333e+01 1.4359551732620096e+02  7.6862816650095965e+01 5.3941497202474551e+01 1.4017563734790139e+02  7.6798174650335355e+01 5.3221446762839996e+01 1.4570353279493125e+02  7.9043876273972145e+01 5.0946855154613708e+01 1.5158058749687899e+02  7.9036222938183016e+01 5.6343151054697735e+01 1.4959230781774332e+02  7.8963766646420822e+01 5.2048650815223745e+01 1.4604289155859652e+02  7.8849461418849387e+01 5.2814182773844138e+01 1.4063075228507441e+02  7.8930445861254455e+01 5.7062252535384388e+01 1.4398231841079075e+02  7.9014114372104146e+01 6.1585899003947759e+01 1.4732526274153867e+02  8.1086425900839856e+01 4.9765295371677396e+01 1.5186896688457196e+02  8.3816386287691174e+01 5.1710975334595496e+01 1.6370130372372896e+02  8.0982279161859708e+01 5.5255651612354320e+01 1.5001661981159560e+02  8.0906289912570443e+01 5.0969305648873430e+01 1.4660294055378029e+02  8.3050474155620918e+01 5.2335070466752917e+01 1.5611315134281858e+02  8.3349583853575950e+01 5.7886836580568129e+01 1.6118051126374920e+02  8.1106259181464580e+01 4.8268671158296222e+01 1.5771518718121098e+02  8.1231378919748920e+01 5.4173778792801293e+01 1.5610101317159206e+02  8.4352495010492191e+01 7.0356878262820914e+01 1.5708346886159632e+02  8.5178747228283129e+01 6.5737286728660280e+01 1.5100693849000544e+02  8.1156564952493412e+01 6.0566887316220132e+01 1.4774861519781641e+02  8.3754731970053996e+01 6.4251176648329434e+01 1.5912996892928601e+02  8.3089852981430937e+01 5.8999421967097597e+01 1.5371256027028375e+02  8.0955742350855218e+01 5.6087411282274822e+01 1.4463887851746216e+02  8.3052927120807510e+01 6.0653813853347145e+01 1.4761469836458261e+02  8.1151304729930771e+01 5.9897386317391678e+01 1.5377792177817597e+02  8.1143970365432153e+01 6.5372101224117046e+01 1.5121279791440870e+02  8.1990816739532363e+01 5.6563362446370135e+01 1.4582663596883063e+02  8.0915462287471371e+01 5.1923072473117948e+01 1.4117884846487641e+02  8.0802071158315741e+01 5.3920129992253038e+01 1.5021209971477219e+02  7.2864110253592813e+01 4.4690362198373748e+01 9.2988070733095682e+01  7.5952866037207755e+01 4.2945888753377140e+01 8.9413005570906577e+01  7.6135370033108046e+01 4.4199976590327161e+01 9.3497626175729735e+01  7.4012127644232621e+01 4.0429502466868755e+01 9.1840452282822099e+01  7.3594932700827172e+01 3.8198662136601392e+01 9.1706646431236962e+01  7.4949837880163244e+01 4.0259100365416245e+01 8.9475066472795589e+01  7.5994990913332089e+01 4.1343437365234166e+01 9.2321124278671533e+01  7.8161014240747775e+01 4.3306915542623116e+01 9.3343679651035927e+01  7.5966853561113595e+01 4.2514030295711237e+01 9.0206499660761565e+01  7.4533697371165019e+01 4.2051854323603465e+01 8.7790390155297061e+01  7.2346176640626169e+01 3.4015378903262018e+01 8.7095266066657715e+01  7.5784137194775298e+01 3.8688854034025262e+01 9.0983568136196524e+01  7.3259410234690137e+01 3.5792934158057129e+01 8.5099854680329543e+01  7.5953411985758748e+01 3.6082549898297522e+01 8.9472304984426984e+01  7.8044700401488569e+01 3.7822922937351528e+01 9.0554878521529943e+01  7.5805666446354550e+01 3.9865898999302246e+01 8.8960395263171733e+01  7.8155774218395578e+01 4.0504579247505518e+01 9.2012033829181433e+01  7.5868272660869479e+01 3.7289784085570624e+01 8.7519843120267680e+01  7.3209947630015449e+01 3.7306457477340921e+01 8.3990911336666670e+01  7.3867450114839400e+01 3.8048524407481494e+01 8.8598137284914870e+01  7.3665994979292520e+01 3.9729109428655910e+01 8.6926643370216468e+01  7.2209578803413194e+01 3.5703878342699319e+01 9.0459389019417713e+01  7.2785718720349479e+01 3.8335354800449650e+01 8.0091021641380920e+01  7.5934424443665080e+01 3.9546041442162121e+01 8.3753540987539765e+01  7.5792518058030254e+01 4.1027652425939209e+01 8.7028130121155641e+01  7.5925369294558095e+01 3.8505123525784725e+01 8.5743248188274535e+01  7.8142688042543213e+01 4.1727104029145607e+01 8.9891329839247419e+01  7.8080870697723640e+01 3.9063402140261907e+01 8.8569454800116503e+01  7.8044539112032439e+01 4.0212274380762189e+01 8.6637481921245922e+01  7.2490116843333865e+01 3.8311527673726204e+01 8.2120031743494366e+01  7.2779416244517492e+01 4.0974388874952908e+01 8.5461016008398133e+01  8.3438759300985524e+01 4.2025980772335949e+01 9.4143013148912573e+01  8.0254887693573480e+01 4.0856840562354591e+01 8.9568673100664228e+01  8.0012012917088143e+01 4.2554101048307174e+01 9.3215856414508821e+01  8.0187206270099665e+01 3.9599571538803957e+01 9.1758895852568301e+01  7.8177262145111399e+01 3.7656151452285584e+01 8.1426444537010141e+01  7.8091603527907267e+01 4.0845480085094458e+01 8.3960896712362725e+01  7.8080019144254848e+01 3.8899895585093788e+01 8.4036336266521246e+01  7.6086099662165097e+01 3.8240272593592749e+01 8.1180769871257880e+01  7.6111733201294840e+01 3.8760107725145581e+01 7.8779113036602126e+01  7.6067860171054406e+01 3.7089484252762517e+01 7.8858914238753044e+01  7.4616212368170423e+01 3.6669419732215069e+01 7.6951567531059581e+01  7.6059842642964099e+01 3.7611390400064693e+01 7.6502440358872562e+01  7.6046702678656359e+01 3.5876668981657808e+01 7.6594723464540138e+01  8.0306206880128400e+01 4.1543189574644252e+01 8.6684001609678958e+01  8.3949201338289683e+01 4.1056854124997052e+01 9.0692975361870921e+01  8.0554814986461764e+01 3.9509359461124504e+01 8.6759848333840878e+01  8.0475092646412520e+01 4.0150945494952772e+01 8.4158410381872585e+01  8.2525248505611842e+01 4.1854826202138327e+01 8.7903845718903327e+01  7.3840740667658835e+01 2.6089773977908585e+01 5.6608360743723324e+01  7.8433746327164783e+01 2.7720894837419536e+01 5.6053650944767746e+01  7.4590266059193723e+01 2.5283346670166605e+01 5.1776040727195380e+01  7.4720413462112020e+01 2.4256666835784468e+01 5.4194593555143690e+01  7.8400436279273123e+01 2.6488838635997222e+01 5.8806905888323413e+01  7.8452439747545711e+01 2.4435586389206893e+01 5.5229826264531617e+01  8.3353099766857454e+01 2.6732416323419837e+01 6.0753345633341077e+01  8.3351570344936576e+01 2.7603641955363873e+01 5.7896043830701011e+01  7.8701319988435472e+01 4.0661550825270396e+01 1.3070669746964333e+02  8.0816177666088947e+01 3.8599383160090213e+01 1.3583803269890180e+02  8.2988473964373270e+01 3.5375027423656427e+01 1.4080516450770094e+02  8.5437851252506917e+01 4.7883182170672974e+01 1.3720911736499238e+02  8.1063022189971903e+01 4.3454067128626612e+01 1.3418351877402841e+02  8.0842675149792882e+01 3.9702144564464149e+01 1.3115663064736052e+02  8.3007187408152674e+01 4.1555357025272230e+01 1.3909300108769062e+02  8.3166393721902594e+01 4.3644401107129980e+01 1.3381699401161751e+02  8.2101303724545360e+01 4.0207296717556012e+01 1.3225001263297690e+02  8.0713049359013525e+01 3.7304813654290633e+01 1.3593188115991771e+02  8.4196901782966165e+01 3.6080744732131997e+01 8.0783291347560521e+01  8.4152469448728354e+01 3.3632615686763678e+01 7.5416091594621491e+01  8.4712989321553366e+01 3.5887630681841308e+01 7.7906916062129767e+01  8.0842045231830198e+01 3.4007042377533054e+01 7.5112903600571414e+01  7.8401586173791586e+01 3.2606883616682751e+01 7.1104409672223710e+01  8.0844348773672067e+01 3.2880236471322235e+01 7.2689498338479609e+01  8.0902345203560273e+01 3.4860261699080816e+01 7.3336793841131879e+01  8.3420993284077639e+01 3.6735850526257664e+01 7.5902561416502337e+01  8.3309468247317326e+01 3.4549320245904660e+01 7.4097690226995198e+01  8.2416658994687637e+01 3.2818030447587866e+01 7.3762258026743126e+01  7.8263885576159751e+01 4.3070962237989718e+01 9.7241625973241227e+01  7.8364714152737463e+01 4.6321134869122140e+01 9.9634419454865565e+01  7.8336622943265738e+01 4.2674813468536165e+01 1.0125884732864587e+02  7.6049470641674787e+01 4.3953081083841617e+01 9.7487683875578398e+01  8.4252694521659748e+01 3.9665587300425507e+01 1.1059508301857558e+02  8.0544440011687584e+01 4.1534232546006805e+01 1.0094376649846355e+02  8.5123017922367580e+01 3.8217184380504726e+01 1.0460169364550194e+02  8.3629537262593530e+01 4.3679251571164578e+01 1.0836932850370809e+02  8.3250922282777779e+01 4.7522083794433726e+01 1.0603554575022233e+02  8.0428057859571027e+01 4.5443097933056450e+01 9.9439379829928143e+01  8.2386180305169859e+01 4.3270581101350558e+01 1.0294172281921202e+02  8.2661071345410534e+01 3.9086324506419956e+01 1.0063442834183589e+02  8.0242148087322647e+01 4.2212702889077242e+01 9.7054852729318185e+01  8.0695057257733453e+01 4.1036442256268323e+01 1.0518394111185431e+02  8.0697140568570148e+01 4.4994485104486969e+01 1.0371225768024661e+02  8.0638511359442660e+01 4.8792231846699607e+01 1.0186619116914491e+02  7.9592015665250202e+01 4.4468625400338624e+01 9.9485429329464438e+01  8.1637673366880520e+01 4.6844747260840613e+01 9.5481885699989405e+01  8.2553931275242789e+01 4.9231741826351929e+01 9.6216498274820054e+01  8.0288504285098909e+01 4.5498118826422171e+01 9.5377170417030996e+01  8.2487393975715946e+01 4.8033810911174193e+01 1.0077979345102499e+02  8.1667707939726967e+01 4.0132614677515882e+01 9.8148283763025276e+01  7.6697255598228722e+01 4.2144072241539504e+01 1.0958164056485839e+02  7.6458405864956489e+01 4.5449319912285908e+01 1.1230765509674339e+02  7.8612191996516572e+01 4.0585228960219986e+01 1.1401808365818108e+02  7.8661285822159812e+01 4.3973775765531663e+01 1.1681051252068748e+02  7.8608250585620524e+01 4.8039521814815387e+01 1.1494523359514130e+02  7.8567844236404270e+01 4.4496586610588004e+01 1.1234718417894523e+02  7.8522026126318281e+01 4.1162794405245663e+01 1.0969539706654652e+02  8.0865545576327278e+01 3.8628245824228578e+01 1.1827709353737264e+02  8.5179305216132292e+01 3.4583442116645593e+01 1.2298790730955163e+02  8.3831298147228907e+01 4.0226450130206864e+01 1.2710057991938680e+02  8.3474547399974298e+01 4.4872580987834148e+01 1.2504309211529453e+02  8.0662498676599427e+01 4.2997607243239258e+01 1.1675984908765574e+02  8.2896503819175237e+01 4.0356299189550427e+01 1.2095078517316969e+02  8.2842730809422150e+01 3.6109098514977966e+01 1.1832213184772846e+02  8.0605684589211364e+01 3.9561046282340428e+01 1.1407278516601372e+02  8.0963587585651666e+01 4.2163489453359524e+01 1.2167211997856980e+02  8.4212224750186309e+01 5.4705699569576247e+01 1.2213840559522424e+02  8.5457120592936889e+01 5.1347915183080126e+01 1.1670659851476337e+02  8.0963435239091936e+01 4.7160111685924576e+01 1.1491480417231634e+02  8.3749715385366429e+01 4.9678054771206014e+01 1.2364302622166066e+02  8.2877186616650761e+01 4.5739962489160192e+01 1.1897964391704851e+02  8.0665999529006726e+01 4.3642931250423167e+01 1.1242459721709578e+02  8.3081338283761895e+01 4.7405958970314444e+01 1.1404963906208015e+02  8.0896134024325363e+01 4.6595843655800600e+01 1.1981224070974275e+02  8.0902426869053372e+01 5.0882895631290744e+01 1.1768733294411412e+02  8.1969226780427405e+01 4.4328484891710083e+01 1.1313759314496052e+02  8.0573201685427321e+01 4.0360144760321738e+01 1.0973704912691086e+02  8.0533990978136728e+01 4.1809053661833204e+01 1.1663885798078208e+02  8.1724402717425775e+01 3.7830295237002964e+01 1.1566044123712678e+02  7.4090950298991075e+01 3.2993169188219504e+01 1.4461613686496389e+02  7.6811296892746398e+01 3.0776896923814046e+01 1.5203888568671124e+02  7.6890459917171583e+01 3.2318772248188928e+01 1.4674785401375902e+02  7.6779662143584957e+01 3.5930004057415232e+01 1.5071010426973393e+02  7.9012835247603405e+01 3.8699890761413577e+01 1.5495683677190661e+02  7.9047500768929098e+01 3.3161898406883466e+01 1.5640579334176903e+02  7.8935600043347904e+01 3.4722898654587659e+01 1.5098246816017840e+02  7.8856286308546800e+01 3.1028760621248296e+01 1.4703204263762930e+02  7.8986273688381203e+01 2.9437151587571698e+01 1.5218691465626009e+02  7.9048854615983572e+01 2.7513200316203868e+01 1.5750164064239749e+02  8.1151247843948525e+01 3.5854305694568161e+01 1.6115240914083611e+02  8.3707434483732953e+01 3.9238372255883711e+01 1.6742285831898317e+02  8.1077305312194966e+01 3.1779701805544416e+01 1.5683882096291524e+02  8.3079222631032806e+01 3.4659664591606315e+01 1.6113478776049485e+02  8.3289930091446621e+01 3.2510486733304170e+01 1.6793052548340512e+02  8.1183964259208025e+01 2.9876474063944844e+01 1.6236101488394323e+02  8.1145936385581763e+01 3.7431273343953471e+01 1.5532063653584737e+02  8.0999964417223481e+01 3.3505222306678625e+01 1.5147574271912515e+02  8.1137475873220851e+01 4.1711880853532875e+01 1.5943135009229692e+02  8.0857504292649722e+01 2.8050600892592620e+01 1.5250755733374692e+02  8.0385354663224220e+01 3.0437035250952206e+01 1.5683675335985617e+02  8.0867664237536303e+01 2.9736965795596827e+01 1.4746470021673832e+02  7.6567886193339689e+01 3.7921090672584675e+01 1.1126458200393002e+02  7.8566781458470828e+01 3.6981506208072311e+01 1.1100025486248188e+02  7.8579288782654814e+01 3.6125597872192259e+01 1.1525340668858452e+02  7.8502357273925028e+01 3.2764376019894002e+01 1.1200004088304826e+02  7.5946952488272132e+01 3.7737131398730988e+01 1.0639577057437930e+02  7.6229444089030352e+01 3.4737407216135239e+01 1.0856714645316237e+02  7.4834361889175128e+01 3.5209532894627692e+01 1.0548579916414283e+02  7.6633169652587213e+01 3.8526053791499386e+01 1.0718362621030492e+02  7.2864497843110072e+01 3.0322532173075256e+01 9.8606105618191350e+01  7.6154639147889611e+01 3.2486051442862120e+01 1.0181909431300940e+02  7.6250076181266735e+01 3.5455445658699851e+01 1.0465845555127136e+02  7.6017269262462293e+01 3.1732144111061231e+01 1.0556207921799928e+02  7.8472235759887951