<?xml version="1.0"?>
<VTKFile type="UnstructuredGrid"  version="0.1"  >
<UnstructuredGrid>
<Piece  NumberOfPoints="5067" NumberOfCells="21972">
<Points>
<DataArray  type="Float64"  NumberOfComponents="3"  format="ascii">-50.199326 -20.506615 13.982361  -48.274421 -20.771295 14.32457175  -48.571912 -20.0502745 14.38335  -48.89138325 -19.850365 13.6308805  -47.58344049999999 -19.194115 13.2794  -46.96647824999999 -20.115045 13.97309125  -47.26396925 -19.3940245 14.0318695  -46.944498 -19.593934 14.784339  -46.647007 -20.3149545 14.72556075  -46.349516 -21.035975 14.6667825  -48.59389225 -20.5713855 13.57210225  -47.2859495 -19.9151355 13.22062175  -46.9884585 -20.636156 13.1618435  -46.66898725 -20.8360655 13.914313  -49.87985475 -20.7065245 14.7348305  -49.5603835 -20.906434 15.4873  -47.95494975 -20.9712045 15.07704125  -48.25244075 -20.250184 15.1358195  -48.921441 -21.306253 16.992239  -47.6354785 -21.171114 15.82951075  -47.9329695 -20.4500935 15.888289  -49.24091225 -21.1063435 16.2397695  -44.967555 -17.881615 12.576439  -44.670064 -18.6026355 12.51766075  -45.6585355 -19.458795 13.62161075  -45.97800675 -19.2588855 12.86914125  -45.36104450000001 -20.1798155 13.5628325  -45.68051575 -19.979906 12.810363  -44.372573 -19.323656 12.4588825  -45.95602649999999 -18.7377745 13.680389  -46.27549775 -18.537865 12.9279195  -43.777591 -20.765697 12.341326  -44.075082 -20.0446765 12.40010425  -45.0635535 -20.900836 13.50405425  -45.38302475 -20.7009265 12.75158475  -48.89116575 -20.27846175 12.91154275  -47.583223 -19.62221175 12.56006225  -47.285732 -20.34323225 12.501284  -47.5830055 -20.0503085 11.8407245  -44.966685 -19.594002 9.699088  -44.6694115 -19.88692575 10.3596475  -44.9669025 -19.16590525 10.41842575  -46.27484525 -19.82215525 10.76990625  -45.97757175 -20.115079 11.43046575  -46.27506275 -19.3940585 11.489244  -44.96711999999999 -18.7378085 11.1377635  -44.669629 -19.458829 11.07898525  -44.372138 -20.1798495 11.020207  -44.9673375 -18.30971175 11.85710125  -46.27528024999999 -18.96596175 12.20858175  -45.97778925 -19.68698225 12.1498035  -44.6698465 -19.03073225 11.798323  -44.3723555 -19.75175275 11.73954475  -45.68029825 -20.40800275 12.09102525  -44.0748645 -20.47277325 11.6807665  -52.226008 -18.208582 8.768789999999999  -51.211489 -18.35377025 9.550091999999999  -51.44407825 -17.66417 9.587869749999999  -51.44407825 -18.04174375 8.93389275  -50.6621485 -17.8749055 9.098995500000001  -50.42955925 -18.186932 9.71519475  -50.6621485 -17.49733175 9.7529725  -50.6621485 -17.119758 10.4069495  -50.42955925 -17.80935825 10.36917175  -50.19697 -18.4989585 10.331394  -51.99341875 -18.5206085 9.38498925  -51.7608295 -18.832635 10.0011885  -50.97889975 -18.66579675 10.16629125  -51.211489 -17.9761965 10.204069  -52.226008 -17.83100825 9.422767  -52.226008 -17.4534345 10.076744  -51.44407825 -17.28659625 10.24184675  -51.99341875 -18.14303475 10.03896625  -52.226008 -16.698287 11.384698  -51.44407825 -16.9090225 10.89582375  -51.99341875 -17.38788725 11.34692025  -52.226008 -17.07586075 10.730721  -51.211489 -17.59862275 10.858046  -51.99341875 -17.765461 10.69294325  -51.7608295 -18.0774875 11.3091425  -51.295651 -19.456688 11.233587  -50.7463105 -18.97782325 10.7824905  -50.97889975 -18.288223 10.82026825  -51.52824025 -19.1446615 10.61738775  -51.52824025 -18.76708775 11.27136475  -51.7608295 -18.45506125 10.6551655  -49.098289 -17.541229 9.429201000000001  -49.6476295 -18.02009375 9.880297500000001  -49.88021875 -17.3304935 9.918075250000001  -49.88021875 -17.70806725 9.26409825  -48.899791 -23.63693 13.642066  -47.61825575 -23.33099875 12.48870225  -47.26214299999999 -23.68357075 13.1788635  -48.5214565 -24.4505235 13.4659525  -48.14312200000001 -25.264117 13.289839  -47.23992125 -24.14459225 12.31258875  -46.8838085 -24.49716425 13.00275  -45.624495 -23.7302115 12.715661  -45.98060775 -23.3776395 12.02549975  -46.3367205 -23.0250675 11.3353385  -47.386453 -26.891304 12.937612  -46.86158675 -24.95818575 12.13647525  -46.48325225000001 -25.77177925 11.96036175  -46.1271395 -26.12435125 12.650523  -44.867826 -25.3573985 12.363434  -45.60227325 -24.191233 11.84938625  -45.22393875 -25.0048265 11.67327275  -45.5800515 -24.6522545 10.9831115  -45.958386 -23.838661 11.159225  -46.505474 -25.31075775 12.8266365  -45.2461605 -24.543805 12.5395475  -47.7647875 -26.0777105 13.1137255  -43.77365 -22.413205 9.028611  -45.05518525 -22.71913625 10.18197475  -43.41753725 -22.765777 9.718772250000001  -44.67685075 -23.53272975 10.00586125  -44.6990725 -23.07170825 10.872136  -44.32073800000001 -23.88530175 10.6960225  -43.0614245 -23.118349 10.4089335  -42.349199 -23.823493 11.789256  -44.34295975 -23.42428025 11.56229725  -42.70531175 -23.470921 11.09909475  -43.96462525 -24.23787375 11.38618375  -43.6085125 -24.59044575 12.076345  -43.986847 -23.77685225 12.2524585  -45.989047 -16.866138 10.027009  -45.733674 -17.12000725 10.6643665  -46.5109845 -17.28878 10.5149145  -45.4780835 -17.80197325 10.58238625  -45.2227105 -18.0558425 11.21974375  -46.000021 -18.22461525 11.07029175  -47.032922 -17.711422 11.00282  -46.2556115 -17.54264925 11.152272  -45.478301 -17.3738765 11.301724  -46.255394 -17.970746 10.43293425  -45.7334565 -17.548104 9.945028749999999  -45.222493 -18.48393925 10.500406  -45.477866 -18.23007 9.8630485  -46.510767 -17.71687675 9.79557675  -47.0327045 -18.13951875 10.28348225  -47.032487 -18.5676155 9.564144500000001  -46.2551765 -18.39884275 9.713596500000001  -46.7663575 -17.03491075 9.877556999999999  -47.288295 -17.45755275 10.3654625  -47.2880775 -17.8856495 9.64612475  -47.543668 -17.2036835 9.728104999999999  -48.3209785 -17.37245625 9.578652999999999  -48.065388 -18.05442225 9.496672750000002  -48.0656055 -17.6263255 10.2160105  -45.22227549999999 -18.912036 9.781068250000001  -45.9998035 -18.652712 10.350954  -45.999586 -19.08080875 9.63161625  -45.222928 -17.62774575 11.9390815  -46.00023849999999 -17.7965185 11.7896295  -50.197494 -22.366079 10.768942  -49.87306825 -22.68379175 11.487223  -48.59251825 -21.9659835 11.162038  -50.197952 -21.901213 11.57229675  -50.19841 -21.436347 12.3756515  -49.87352625 -22.21892575 12.29057775  -48.59297625 -21.5011175 11.96539275  -46.9875425 -21.565888 11.555134  -48.2680925 -22.28369625 11.880319  -49.5486425 -23.0015045 12.205504  -48.59343425 -21.0362515 12.7687475  -49.87444225 -21.28919375 13.89728725  -48.2685505 -21.81883025 12.68367375  -46.9880005 -21.101022 12.35848875  -48.2690085 -21.35396425 13.4870285  -49.5495585 -22.0717725 13.8122135  -50.198868 -20.971481 13.17900625  -49.87398425 -21.75405975 13.0939325  -47.94366675000001 -22.601409 12.5986  -47.619241 -22.91912175 13.316881  -47.94412475 -22.136543 13.40195475  -46.66357475 -21.41873475 13.07676975  -46.338691 -22.2013135 12.991696  -46.66311675 -21.88360075 12.273415  -49.22467475000001 -22.85435125 13.72713975  -49.54910049999999 -22.5366385 13.00885875  -49.22421675 -23.31921725 12.923785  -45.38256675 -21.1657925 11.94823  -45.058141 -21.48350525 12.666511  -48.921123 -25.370475 9.953027000000001  -48.5378025 -26.15715175 9.6608295  -47.277956 -25.665724 8.493979  -47.28411800000001 -25.354711 9.46562525  -45.647113 -25.338947 8.9782235  -46.8946355 -26.45240075 8.201781499999999  -46.9007975 -26.14138775 9.17342775  -45.640951 -25.64996 8.006577249999999  -45.634789 -25.960973 7.034931  -48.154482 -26.9438285 9.368632  -48.91496100000001 -25.681488 8.98138075  -47.271794 -25.976737 7.52233275  -48.908799 -25.992501 8.0097345  -48.5316405 -26.46816475 8.689183249999999  -47.387841 -28.517182 8.784236999999999  -46.1341565 -27.71474125 8.589032749999999  -46.511315 -27.2390775 7.909584  -46.517477 -26.9280645 8.88123025  -45.2637925 -26.12562375 8.686026  -45.2576305 -26.43663675 7.71437975  -44.880472 -26.9123005 8.3938285  -47.77116150000001 -27.73050525 9.0764345  -47.7649995 -28.04151825 8.104788249999999  -48.14832 -27.2548415 8.396985749999999  -48.142158 -27.5658545 7.4253395  -42.373103 -25.307419 8.00342  -43.6267875 -26.10985975 8.19862425  -44.003946 -25.634196 7.5191755  -44.010108 -25.323183 8.49082175  -45.989047 -18.19909 7.334892  -46.5184765 -18.99427925 6.99578375  -46.772279 -18.3362925 7.182125  -46.772279 -18.5628875 6.466115  -47.555511 -18.926685 5.597338  -47.3017085 -19.35807675 6.12700675  -47.555511 -18.70009 6.313348  -47.555511 -18.473495 7.029358  -47.3017085 -19.13148175 6.84301675  -47.047906 -19.7894685 6.6566755  -45.7352445 -18.85707675 7.14855075  -45.989047 -18.425685 6.618882  -45.989047 -18.65228 5.902872  -46.5184765 -19.22087425 6.27977375  -45.7352445 -19.08367175 6.43254075  -45.481442 -19.5150635 6.9622095  -46.264674 -19.652266 6.8094425  -49.121975 -18.7479 6.723824  -48.0849405 -19.26868425 6.69024975  -48.33874299999999 -18.6106975 6.876590999999999  -48.33874299999999 -18.8372925 6.160581  -44.973837 -20.831037 6.589527  -46.0108715 -20.31025275 6.62310125  -45.2276395 -20.17305025 6.77586825  -45.481442 -19.7416585 6.2461995  -50.19865 -23.719441 7.31325  -49.960104 -22.67102675 6.481738  -48.89244675 -22.99734 7.13231925  -49.92948125 -22.47655575 7.1658935  -49.6603125 -21.2336705 7.018537  -48.65390075000001 -21.94892575 6.30080725  -49.69093525 -21.4281415 6.3343815  -48.623278 -21.75445475 6.98496275  -47.5862435 -22.275239 6.9513885  -49.721558 -21.6226125 5.650226  -48.11556325 -19.46315525 6.00609425  -48.35410925 -20.5115695 6.83760625  -49.4217665 -20.18525625 6.187025  -49.39114375 -19.99078525 6.871180499999999  -47.24193624999999 -23.173803 14.106308  -46.88483825 -23.938252 13.9682905  -44.8698855 -24.239574 14.294515  -45.2269835 -23.475125 14.4325325  -45.60428825 -23.22044375 13.6431055  -45.96138625 -22.45599475 13.781123  -45.5840815 -22.710676 14.57055  -45.981593 -22.9657625 12.8536785  -45.24719025 -23.98489275 13.505088  -48.52248625 -23.89161125 14.431493  -46.50753349999999 -24.19293325 14.7577175  -46.8646315 -23.42848425 14.895735  -48.1451815 -24.1462925 15.22092  -47.390572 -24.655655 16.799774  -47.76
[...]
<PointData  Vectors="u"> 
<DataArray  type="Float64"  Name="u"  NumberOfComponents="3" format="ascii">7.3911360736438496e+01 -1.2267653619270828e+02 8.3631803148720820e+01  7.6906199019412895e+01 -1.2004329064650138e+02 8.2794060642725569e+01  7.6878815942025156e+01 -1.2194119418511069e+02 8.7500596818283952e+01  7.6738611191330378e+01 -1.2757459586135984e+02 8.7604431289953268e+01  7.8990591800530865e+01 -1.3120868208923582e+02 9.0775985835232817e+01  7.8831391112520151e+01 -1.2342495564716330e+02 8.5730264562646028e+01  7.8895925155342454e+01 -1.2532812409966935e+02 9.0660476475794397e+01  7.8867315429948178e+01 -1.1958831381864449e+02 9.0221208988861648e+01  7.8796996828995518e+01 -1.1799685386992246e+02 8.5508415124180175e+01  7.8780908203220747e+01 -1.1615156051081918e+02 8.0962771601002999e+01  7.6904049108092480e+01 -1.2544844516616520e+02 8.2829705337310514e+01  7.8924046028460552e+01 -1.2911444464082356e+02 8.5694645279799431e+01  7.8855858712934221e+01 -1.2675682593772835e+02 8.0827732266361309e+01  7.8790786325548439e+01 -1.2142024964094946e+02 8.1069210620220673e+01  7.5993543673329057e+01 -1.1679904728886474e+02 8.5137378583898055e+01  7.4700443681369990e+01 -1.1315935551211756e+02 8.5551016550883560e+01  7.6688418970951957e+01 -1.1494529837640994e+02 8.2643006966545656e+01  7.6659542032591219e+01 -1.1660617224097729e+02 8.7103870683194103e+01  7.3744866019756159e+01 -1.0261869280491509e+02 8.1827072552151648e+01  7.6551009422690157e+01 -1.0997206030786495e+02 8.2166233729731601e+01  7.6367023066332294e+01 -1.1143257454527416e+02 8.6669393741330950e+01  7.2846591976755846e+01 -1.0803049044231282e+02 8.4972289175781697e+01  8.4354638938620525e+01 -1.4063259133063869e+02 9.8855673543728628e+01  8.4941137530512691e+01 -1.3584919839532813e+02 9.3125705689349942e+01  8.1185723329791557e+01 -1.2670746034770643e+02 8.8700527083892354e+01  8.1175183516757400e+01 -1.3284008304553797e+02 8.8643000579701962e+01  8.1109676986767326e+01 -1.2483836891207643e+02 8.3862272497030446e+01  8.1069784554416884e+01 -1.3056226006912834e+02 8.3693465982990077e+01  8.3004883074168632e+01 -1.3345748263333260e+02 8.7636396260509784e+01  8.1186099219610142e+01 -1.2871666450482860e+02 9.4043456068755745e+01  8.1109015237922918e+01 -1.3504031209172683e+02 9.4191083509420196e+01  8.4445661953297360e+01 -1.3056121009746806e+02 7.7569461225177918e+01  8.2046812901761129e+01 -1.3244847544191489e+02 8.3384589920537820e+01  8.1049330225362979e+01 -1.2261150069966016e+02 7.9182861686696612e+01  8.0870458879118999e+01 -1.2816058682265754e+02 7.8814341484987466e+01  7.6769495950250885e+01 -1.3087012023180523e+02 8.3351656106947473e+01  7.9047588806590824e+01 -1.3465682660018575e+02 8.6161314757878415e+01  7.9001259066793494e+01 -1.3218774347739856e+02 8.1208526227138435e+01  7.9058890981663865e+01 -1.3777453569187776e+02 8.1381778888203442e+01  8.4236966262889240e+01 -1.5407753469956313e+02 7.6323599707219998e+01  8.4966851783674713e+01 -1.4706450810889172e+02 7.4880410700490927e+01  8.3620013257373273e+01 -1.5101385598838144e+02 8.2084856187747562e+01  8.1145855691399319e+01 -1.4501912372420804e+02 7.8735884702729905e+01  8.1123138414488963e+01 -1.3917394920540519e+02 7.9070303797266121e+01  8.1118396523282414e+01 -1.4204943181977129e+02 8.4112100459840278e+01  8.3328163018620003e+01 -1.4706593093895182e+02 8.7399372412868829e+01  8.3140239471777306e+01 -1.4331513471710068e+02 8.1224117706515116e+01  8.3017336353862746e+01 -1.4076103998056894e+02 7.5269046706793631e+01  8.3646694459825341e+01 -1.4436351649425097e+02 9.3399223593256721e+01  8.1139543816166153e+01 -1.3877465385969188e+02 8.9321401540288193e+01  8.1115143111668814e+01 -1.3623345868864308e+02 8.4037001668913149e+01  8.3113021680800898e+01 -1.3984686822930482e+02 8.7037403413552866e+01  8.0375905564570459e+01 -1.3730054487432781e+02 8.1654537156119545e+01  8.0846379427684653e+01 -1.3348684306904877e+02 7.9069663545388138e+01  8.1786682395792454e+01 -1.3692760738976244e+02 7.6373151562619483e+01  7.9225883630234122e+01 -1.7426535136825927e+02 8.3918516073516841e+01  7.7552203677965181e+01 -1.6678248571785525e+02 8.6899145591144617e+01  7.7794008288078388e+01 -1.7095123642723235e+02 9.3199736576410857e+01  7.8746756821395905e+01 -1.7380376922913538e+02 8.5279426960857705e+01  7.9110824671929350e+01 -1.7284007092419424e+02 8.6916762095112418e+01  7.8380922141944041e+01 -1.6556181929470219e+02 8.8278549077642822e+01  7.8823193513190034e+01 -1.6974763517694424e+02 9.4941759839214640e+01  7.9248475302042280e+01 -1.6492023739179200e+02 1.0104351159856408e+02  7.8399077347196624e+01 -1.6195260121437633e+02 9.4466368069932884e+01  7.7755264585488035e+01 -1.5819342334999240e+02 8.8433104005894265e+01  7.7786834652411571e+01 -1.6699504929768301e+02 8.6527912914358950e+01  7.5510098035947209e+01 -1.6068111722059697e+02 8.7163384352417495e+01  7.6431394708374910e+01 -1.5957659346719487e+02 8.7307716929461506e+01  7.7084810929230656e+01 -1.6376656296913430e+02 9.3121948799998094e+01  7.7638506691890896e+01 -1.7217339561352708e+02 9.2092823330509603e+01  7.7712387014991833e+01 -1.6905033284232482e+02 9.7633960581376527e+01  7.8024010929701049e+01 -1.6741469976781036e+02 9.9244958606833521e+01  7.6327799397667576e+01 -1.6572539150565410e+02 9.2120195809931161e+01  7.9232482963517725e+01 -1.5985151412999127e+02 1.0888278759655741e+02  7.8710431577158062e+01 -1.6256256763380443e+02 1.0485213845348765e+02  7.7713343454207561e+01 -1.5853132077749345e+02 1.0080731010999254e+02  7.7596792191531648e+01 -1.6611978322833673e+02 1.0338007851301815e+02  7.7435500229956176e+01 -1.6008748687928804e+02 9.8564338127714223e+01  7.6167156613159406e+01 -1.6279259750760883e+02 9.7454478921033441e+01  7.5572909812753153e+01 -1.5580530311162298e+02 9.5435259568830276e+01  7.4212718484667917e+01 -1.4525824587983442e+02 8.3968286516003076e+01  7.5614776781186862e+01 -1.5271431942473171e+02 8.6740808965634017e+01  7.6143520636266899e+01 -1.5680117203010337e+02 9.2564865680986713e+01  7.2451698995386849e+01 -1.5373011487630484e+02 8.6870892851976677e+01  7.2346656548793078e+01 -1.5219318929868587e+02 8.9279883591220909e+01  7.3348872143490709e+01 -1.6007542329557708e+02 9.2526817521216046e+01  8.0435480189042622e+01 -1.7016204796964973e+02 9.1318576097281635e+01  7.9303101780148950e+01 -1.6419279246145345e+02 9.0106832487582963e+01  8.0012928810854604e+01 -1.6749330157903808e+02 9.6893554844475148e+01  7.9962602383360135e+01 -1.7207505468184786e+02 8.8841360318401797e+01  7.3640841013580271e+01 -1.1348646646797665e+02 6.5476309720805332e+01  7.6542085630356624e+01 -1.2091476571318402e+02 6.4681431970482535e+01  7.6758218631828242e+01 -1.1606577864152584e+02 6.4666322005082876e+01  7.5737778558957999e+01 -1.1261831315662782e+02 6.0404693795208232e+01  7.4741700993344779e+01 -1.1168094528123892e+02 5.7139084204748130e+01  7.6576058129591630e+01 -1.1843679569949471e+02 6.0345847866893713e+01  7.6599468090741880e+01 -1.1386772899677291e+02 6.0355100684169841e+01  7.8701704308670074e+01 -1.1702822081027249e+02 6.2693806387681462e+01  7.8815088306778435e+01 -1.2187757392142426e+02 6.2688535625967027e+01  7.8795322731820903e+01 -1.2691787932256905e+02 6.2467149231727909e+01  7.3503785986103267e+01 -1.0454972232763346e+02 5.0258277742423410e+01  7.6386104754061805e+01 -1.1600241553471800e+02 5.6341893144897327e+01  7.6364062341196686e+01 -1.1332228742140228e+02 5.2501032292335623e+01  7.6483237147205060e+01 -1.0901797636135070e+02 5.2781212009605454e+01  7.8598549329494787e+01 -1.1198045966414843e+02 5.4581675344392657e+01  7.8780932621398804e+01 -1.1914100141070062e+02 5.8342313130953308e+01  7.8732105068657035e+01 -1.1637005784677645e+02 5.4315807301192670e+01  7.8702434977392770e+01 -1.2088334102195191e+02 5.3840414861083687e+01  7.8818103865646549e+01 -1.2393147373804786e+02 5.8001225771899520e+01  7.6400049458630164e+01 -1.1161411211454634e+02 5.6573703003514403e+01  7.8731484310774363e+01 -1.1455167975431030e+02 5.8510321415884384e+01  7.2840125089117237e+01 -1.0946863923791896e+02 5.3558121840338494e+01  8.4302894822919114e+01 -1.4079411436461925e+02 5.6792579793905148e+01  8.1026888792692546e+01 -1.3310912714677752e+02 5.9674863487376143e+01  8.5160739583353021e+01 -1.3398885073922131e+02 5.5580071271480932e+01  8.1132293890114980e+01 -1.2944868715213667e+02 5.5087992377868161e+01  8.0983796641739673e+01 -1.2785207507767969e+02 6.0218005239548546e+01  8.0990798931105346e+01 -1.2463666048706082e+02 5.5764607651839079e+01  8.3070175582753521e+01 -1.2876011465361006e+02 5.6377832364638529e+01  8.4525766624914098e+01 -1.1993526132651328e+02 5.9324833267478141e+01  8.0694010744697167e+01 -1.2274982036431885e+02 6.0555669182232243e+01  8.2037716097422347e+01 -1.2529469818028961e+02 5.7733144615368651e+01  8.0769981134620423e+01 -1.1983398355759910e+02 5.6346274980159087e+01  8.0878591586120393e+01 -1.1512097942989449e+02 5.6526420904399792e+01  8.0748188395259561e+01 -1.1796653088338280e+02 6.0685372822406848e+01  8.6350490207201659e+01 -1.6522481697932128e+02 9.8132493785074914e+01  8.4664903811253879e+01 -1.5876750140940396e+02 9.6396812914893005e+01  8.3743578401974801e+01 -1.5949991528323923e+02 9.6982617562470011e+01  8.4309266324709412e+01 -1.5377263827657265e+02 9.1253896892987129e+01  8.2206635724311283e+01 -1.4924244458624733e+02 9.2040831768340439e+01  8.2301362628109246e+01 -1.5016610752711134e+02 9.0991052053612478e+01  8.1888849505262854e+01 -1.5379778726591130e+02 9.5478235035199177e+01  8.2836897097738287e+01 -1.5262115593002090e+02 9.6606841349728512e+01  8.2385732926011713e+01 -1.5220629657112397e+02 9.6757524739658734e+01  8.3087587223895525e+01 -1.5615184198711557e+02 9.0666789864933250e+01  8.4840501374978288e+01 -1.6032540092780522e+02 9.3425261740794696e+01  8.2167123275995351e+01 -1.5212401351961861e+02 8.7055529246634549e+01  8.2503843295092082e+01 -1.5762028716349539e+02 8.7353269630925737e+01  8.3103244310052943e+01 -1.6298202215401849e+02 9.0162021040690135e+01  8.1897847762888119e+01 -1.5739171057591153e+02 8.9163786462094777e+01  8.1814768866483519e+01 -1.6053645723334438e+02 8.2704968706807719e+01  8.2336577792785860e+01 -1.5952138673171905e+02 8.4558214373246159e+01  8.4101254397518872e+01 -1.6770482795890541e+02 9.6075053533395902e+01  8.2470187416033539e+01 -1.6114853636758946e+02 9.5458184072103876e+01  8.2353464587871116e+01 -1.6413982339879740e+02 8.8315863831868043e+01  8.3000807168802638e+01 -1.6862131187912183e+02 9.4077669636508546e+01  8.2061410193855380e+01 -1.6973044074636016e+02 9.2276924240481009e+01  8.1394853548026376e+01 -1.6513779284095787e+02 8.6764714391683299e+01  8.1412732552952207e+01 -1.6229568107652284e+02 9.3861530594021900e+01  8.0706192393081253e+01 -1.5706480497588549e+02 8.3270586024857110e+01  8.1981700782295107e+01 -1.5327910556820649e+02 8.5412772784783499e+01  8.1326513198469684e+01 -1.5669707040122069e+02 7.9314472725751742e+01  8.0231223450199749e+01 -1.4843385254272999e+02 9.8286375522434639e+01  8.1687031584362288e+01 -1.4655233614637086e+02 9.6684681311429941e+01  7.3843944365311273e+01 -1.3391385848951177e+02 6.4329449953711261e+01  7.6035805096491643e+01 -1.2809685040284720e+02 6.6689782881632070e+01  7.6884631019361066e+01 -1.3403415311376941e+02 6.8143931066402928e+01  7.4309303084966317e+01 -1.3248207365015134e+02 7.0042783835440645e+01  7.4612569719332782e+01 -1.3052533129539410e+02 7.5311943668601501e+01  7.4937550870902115e+01 -1.2801651976306681e+02 7.1342128249936692e+01  7.6756681439138760e+01 -1.3167027512320740e+02 7.3238168360603225e+01  7.8876607066662643e+01 -1.3259041161244014e+02 7.1061540656239941e+01  7.6694159294219389e+01 -1.2864097526987123e+02 6.8532426300814095e+01  7.4725890062587979e+01 -1.2455367123658611e+02 6.7650489214307314e+01  7.6811989697440708e+01 -1.2888151606372273e+02 7.8197486592656119e+01  7.5860781157369885e+01 -1.2191561894334876e+02 7.8022227421943114e+01  7.6550769005064765e+01 -1.2621831304238306e+02 7.3444615270457533e+01  7.8916388943035486e+01 -1.2988228171589211e+02 7.6035448761217438e+01  7.6737084938590286e+01 -1.2319550071909545e+02 7.7728068283858065e+01  7.4655706182341163e+01 -1.2087357710826161e+02 7.4140915619715074e+01  7.4337160035640508e+01 -1.2690197527144801e+02 7.9757724917195929e+01  7.4870781435925750e+01 -1.2589141917437448e+02 7.5423389507535290e+01  7.6415751065275359e+01 -1.2341762666039403e+02 6.8902970838340110e+01  7.6576760262545974e+01 -1.1843319596642455e+02 6.8813237305349659e+01  7.6530963535509528e+01 -1.2091912121685178e+02 7.3245077701815347e+01  7.8847977210689621e+01 -1.2432831528478901e+02 7.5918523644956991e+01  7.8727749798849203e+01 -1.2175787669959892e+02 7.1229609317326606e+01  7.8855131787434047e+01 -1.2706613424068567e+02 7.1288552087768792e+01  7.2876733201416741e+01 -1.1845511949508735e+02 6.9789295824558550e+01  7.3022609508808287e+01 -1.2460651796343116e+02 7.1940063779027582e+01  7.2843146529178242e+01 -1.1934815258251793e+02 6.7836488900056310e+01  8.0875572142479129e+01 -1.3108303199971388e+02 7.4018378947640898e+01  8.0995038400094899e+01 -1.2531282758292642e+02 7.3901829192519244e+01  7.3805542521406409e+01 -1.2227501977842866e+02 4.7858937068535383e+01  7.5741076729771251e+01 -1.2067210452196767e+02 4.3118078286065909e+01  7.6620213864010140e+01 -1.2676870929331999e+02 4.1927291800670623e+01  7.6773872373838799e+01 -1.2470837499124097e+02 4.6612507653275735e+01  7.8708392989809852e+01 -1.2539441550571944e+02 4.4417631263065715e+01  7.6424457050841895e+01 -1.2354439526687021e+02 3.8413863637129793e+01  7.6586129596612707e+01 -1.2182036295484195e+02 4.2635922719216950e+01  7.8775678101556124e+01 -1.2706099230412505e+02 3.9627212167590876e+01  7.8715593317419192e+01 -1.2831116915119438e+02 3.4785488031310067e+01  7.4739494399773875e+01 -1.1919924447387983e+02 3.9922907088669334e+01  7.4221044792227673e+01 -1.2539664267063824e+02 4.3840369217632251e+01  7.6587833053426650e+01 -1.2808822146568852e+02 3.7058786978112565e+01  7.4615426146534801e+01 -1.2758639319178384e+02 3.9270720526493832e+01  7.4950433394956121e+01 -1.2381989297240499e+02 4.0171553040527485e+01  7.3460646951632825e+01 -1.1089149595647685e+02 3.4158504347226113e+01  7.6541424547466178e+01 -1.1575899888829127e+02 3.5890103909205450e+01  7.6306773305069228e+01 -1.2016532483514436e+02 3.4893738511926628e+01  7.6394980762478198e+01 -1.1891694333044583e+02 3.9252761367547301e+01  7.8719856386593776e+01 -1.2226643907728896e+02 4.0662922467680964e+01  7.8717253415831806e+01 -1.2361941800647888e+02 3.6101309672010082e+01  7.8592174408873120e+01 -1.1905987619793972e+02 3.7122419238216963e+01  7.2895654903629705e+01 -1.1631827424390011e+02 3.6736131394989513e+01  7.2784659802151324e+01 -1.1642608498634132e+02 3.5190655423300271e+01  7.3222745766836496e+01 -1.2195868398022586e+02 3.7740940220129076e+01  7.4693279181298607e+01 -1.2079345628193292e+02 3.4099942932490613e+01  8.4531787879534889e+01 -1.2777326573426748e+02 4.0420298733625472e+01  8.0918467799885164e+01 -1.2252752158700801e+02 3.8495910746938257e+01  8.0769504206078992e+01 -1.2755494452877801e+02 3.7410576672456315e+01  8.0750035831610489e+01 -1.2605711779381546e+02 4.2179525730719867e+01  8.6322177576914711e+01 -1.7828353540953202e+02 7.1798907857166682e+01  8.3099128753580288e+01 -1.7483676840227511e+02 6.4449069190160301e+01  8.4024292190921898e+01 -1.8030103478066027e+02 6.9634091076694247e+01  8.3508438954082138e+01 -1.8152609044895559e+02 6.2848004252213727e+01  8.3091764990293100e+01 -1.8484764546682297e+02 5.5328886032284593e+01  8.2315820411494997e+01 -1.7781784659009384e+02 5.6361268535886659e+01  8.2756159608843646e+01 -1.8206663158682056e+02 6.1290807858254560e+01  8.2932331813941985e+01 -1.8084733232818047e+02 6.7716429188490480e+01  8.2323209479920564e+01 -1.7562886297714059e+02 6.2621920432927936e+01  8.1809440481617088e+01 -1.7123843427536963e+02 5.7610507749938641e+01  8.4867002940695329e+01 -1.7276191224002562e+02 6.7898273848140121e+01  8.4132496793725821e+01 -1.8044761684208564e+02 6.4960369339095905e+01  8.4242289817571560e+01 -1.8248614905646406e+02 5.7744669867989998e+01  8.2859946593788976e+01 -1.7698674335330443e+02 5.7806818075793096e+01  8.2506426136319320e+01 -1.7549596309859291e+02 5.9616891695438341e+01  8.2543057535917413e+01 -1.6919075909969712e+02 6.2311655105007056e+01  8.2357016333934993e+01 -1.7058265033105559e+02 5.9435331859174752e+01  8.0453145939489033e+01 -1.8180048181601845e+02 6.5047627550344657e+01  8.1361819202750524e+01 -1.7631369973134551e+02 6.1096281987921834e+01  8.1969470601610396e+01 -1.8163928270708232e+02 6.5949387387345894e+01  8.2133135888985677e+01 -1.8338944044370331e+02 6.0369147615445080e+01  8.4248617955802970e+01 -1.6402551545884452e+02 5.1965355235590216e+01  8.1348060660076214e+01 -1.6700262448298369e+02 5.4687903107526154e+01  8.0769337966094909e+01 -1.6804270762159931e+02 5.8365118652855514e+01  8.0422788117392372e+01 -1.7229614044829830e+02 5.4542358127053227e+01  7.3846926244254533e+01 -1.4201387107639761e+02 4.3669153543256563e+01  7.5368367484907012e+01 -1.5373443835757311e+02 4.4338262065953550e+01  7.6747100602379831e+01 -1.4778776047883321e+02 4.5903189569926155e+01  7.5117065803712848e+01 -1.5249695132544292e+02 4.8402485439918422e+01  7.7320592673197964e+01 -1.6103549306528518e+02 5.3130842045593816e+01  7.8123323933065265e+01 -1.5831079237497653e+02 4.5429156764207683e+01  7.7253096324542199e+01 -1.6286448105003078e+02 4.8186080235209758e+01  7.8124700167073030e+01 -1.5663419259409307e+02 5.0309360753372054e+01  7.9001557603627532e+01 -1.5237665702871175e+02 4.7526589085175104e+01  7.7280028768162083e+01 -1.6428290972956862e+02 4.2911285189193144e+01  8.1421539780507018e+01 -1.7884930268074569e+02 5.5285861054014944e+01  7.9587364591369308e+01 -1.6608971922099946e+02 5.5376458288245743e+01  7.8903521945794097e+01 -1.7310968225226290e+02 5.2947551101604148e+01  7.8928406430596539e+01 -1.7097154984368763e+02 5.8719480475421378e+01  7.6755674919506575e+01 -1.1340217895410244e+02 6.8976957199046225e+01  7.6843214423862918e+01 -1.1132255462006427e+02 6.4994120111446293e+01  7.8657073189240904e+01 -1.0764930261245109e+02 6.3463799711483638e+01  7.8654717909821642e+01 -1.0965548007022370e+02 6.7396431307390230e+01  7.8671846868242667e+01 -1.1447718421707900e+02 6.7254940598258671e+01  7.8697224433757015e+01 -1.1653648396514463e+02 7.1501315151317399e+01  7.8697318734438809e+01 -1.1141318306694512e+02 7.1460684436491050e+01  7.8701843815702460e+01 -1.1948332392233675e+02 6.6867502525103887e+01  7.8653638258702017e+01 -1.1233625647518974e+02 6.3236522015472275e+01  7.5591606755768439e+01 -1.0874394913071123e+02 6.7350190680444143e+01  7.6611146559802947e+01 -1.0684079285363697e+02 6.5198997059939458e+01  7.6537223277595629e+01 -1.0860354883319894e+02 6.9119060441752552e+01  7.4600900868619718e+01 -1.0544450399113514e+02 6.8117374897287050e+01  7.3502919819461709e+01 -9.5866065918866141e+01 6.5349368289568829e+01  7.2700604168056742e+01 -1.0124512559727685e+02 6.7971668935543590e+01  7.6367419639618191e+01 -1.0419331159953195e+02 6.8911026008545988e+01  7.6467917662950569e+01 -1.0236639002947175e+02 6.5086117890713382e+01  8.1129533751649959e+01 -1.1741530517362342e+02 6.9494986156414143e+01  8.1092951899897429e+01 -1.2287470699643131e+02 6.9112667437671789e+01  8.5127240305036082e+01 -1.2548134619045986e+02 7.2837464136711475e+01  8.3038005956621859e+01 -1.2295360683462157e+02 6.8167920276247827e+01  8.1011051553753489e+01 -1.1537500936118681e+02 6.5343101074441208e+01  8.0956188751654949e+01 -1.2044037887018231e+02 6.4877541890098811e+01  8.1127488265494719e+01 -1.1962329583745763e+02 7.4115224333834178e+01  8.0946926386078530e+01 -1.1305696035796458e+02 6.1328766650476823e+01  8.2002648380412367e+01 -1.2193316961317836e+02 6.4568269420641968e+01  7.6513244413999658e+01 -1.0717117719893058e+02 5.7047940196135428e+01  7.4125433394017520e+01 -1.0389116595788330e+02 5.4718738139020019e+01  7.5687797341529404e+01 -1.0024626333246658e+02 5.2328420008305017e+01  7.4729239668238336