<?xml version="1.0"?>
<VTKFile type="UnstructuredGrid"  version="0.1"  >
<UnstructuredGrid>
<Piece  NumberOfPoints="4651" NumberOfCells="20727">
<Points>
<DataArray  type="Float64"  NumberOfComponents="3"  format="ascii">-33.46713 35.789794 -27.111655  -30.985702 33.966886 -26.345189  -31.6828435 34.4395005 -24.8604795  -32.3309525 33.0809765 -25.848284  -31.194775 30.372159 -24.584913  -29.8495245 31.2580685 -25.081818  -30.546666 31.730683 -23.5971085  -29.898557 33.089207 -22.609304  -29.2014155 32.6165925 -24.0940135  -28.504274 32.143978 -25.578723  -42.132673 23.06294 -28.791295  -40.312967 22.79049625 -28.701262  -40.604459 22.0161115 -28.8988445  -40.87983025 22.384583 -28.2450985  -39.6269875 21.706226 -27.698902  -38.784753 21.74366775 -28.8088115  -39.06012425 22.11213925 -28.1550655  -39.35161625 21.3377545 -28.352648  -39.076245 20.969283 -29.006394  -38.493261 22.5180525 -28.611229  -41.2904385 23.10038175 -29.9012045  -41.56580975 23.46885325 -29.2474585  -40.9989465 23.8747665 -29.703622  -39.4707325 22.827938 -29.8111715  -39.74610375 23.1964095 -29.1574255  -40.72357525 23.506295 -30.357368  -40.448204 23.1378235 -31.011114  -41.85730175 22.6944685 -29.445041  -41.5819305 22.325997 -30.098787  -40.03759575 22.42202475 -29.355008  -40.32908775 21.64764 -29.5525905  -41.01506725 22.73191025 -30.5549505  -41.031188 21.589054 -31.406279  -39.7622245 22.05355325 -30.008754  -40.0537165 21.2791685 -30.2063365  -41.30655925 21.9575255 -30.752533  -40.739696 22.36343875 -31.2086965  -39.86522 24.686593 -30.615949  -39.17924050000001 23.60232275 -29.613589  -40.156712 23.91220825 -30.8135315  -40.43208325000001 24.28067975 -30.1597855  -37.121302 20.349512 -26.606509  -37.8072815 21.43378225 -27.608869  -38.0987735 20.6593975 -27.8064515  -38.37414475 21.027869 -27.1527055  -47.35853 10.924067 -27.817879  -45.246866 11.45253725 -28.071133  -45.66002275 11.71429875 -27.3005915  -45.6943715 10.6509055 -27.69485675  -44.030213 10.377744 -27.5718345  -43.5827075 11.17937575 -27.94811075  -43.99586425 11.44113725 -27.17756925  -43.9615155 12.5045305 -26.783304  -43.54835875000001 12.242769 -27.5538455  -43.135202 11.9810075 -28.324387  -46.9110245 11.72569875 -28.19415525  -46.46351900000001 12.5273305 -28.5704315  -44.79936050000001 12.254169 -28.44740925  -45.21251725 12.5159305 -27.67686775  -46.10752825 10.912667 -26.92431525  -44.8565265 10.901267 -26.0307515  -44.409021 11.70289875 -26.40702775  -44.44336975 10.6395055 -26.801293  -45.568508 14.130594 -29.322984  -44.351855 13.05580075 -28.8236855  -44.76501175 13.31756225 -28.053144  -46.0160135 13.32896225 -28.94670775  -42.354523 10.878467 -24.243624  -41.94136625 10.6167055 -25.0141655  -43.15801925 11.69149875 -25.513464  -43.192368 10.6281055 -25.90772925  -42.7448625 11.42973725 -26.2840055  -42.77921125 10.366344 -26.67827075  -41.5282095 10.354944 -25.784707  -43.60552475 10.889867 -25.13718775  -40.701896 9.831421000000001 -27.32579  -41.11505275 10.0931825 -26.5552485  -42.33170575 11.16797575 -27.054547  -42.3660545 10.1045825 -27.44881225  -41.918549 10.90621425 -27.8250885  -45.563908 18.348066 -26.893842  -44.34709275 17.2338565 -26.548159  -44.348079 18.1650075 -25.942861  -44.76834825 17.366726 -25.73690925  -43.9727885 16.385386 -24.5799765  -43.13126375 17.050798 -25.597178  -43.551533 16.2525165 -25.39122625  -43.55251925 17.1836675 -24.78592825  -43.13225 17.981949 -24.99188  -43.1302775 16.119647 -26.202476  -42.381669 14.422706 -22.266111  -41.54014425 15.088118 -23.2833125  -41.9604135 14.2898365 -23.07736075  -43.17722875 15.404046 -23.42304375  -42.335704 16.069458 -24.44024525  -42.75597325 15.2711765 -24.2342935  -41.539158 14.156967 -23.8886105  -41.11888875 14.9552485 -24.09456225  -40.6986195 15.75353 -24.300514  -41.96139975 15.2209875 -22.47206275  -42.7569595 16.2023275 -23.6289955  -41.5411305 16.019269 -22.6780145  -41.119875 15.8863995 -23.48926425  -40.700592 17.615832 -23.089918  -40.69960575 16.684681 -23.695216  -41.12086125 16.8175505 -22.88396625  -42.33669025 17.000609 -23.83494725  -41.91543475 16.8677395 -24.646197  -41.9144485 15.9365885 -25.251495  -41.916421 17.7988905 -24.040899  -40.696647 13.891228 -25.51111  -40.69763325 14.822379 -24.905812  -41.1179025 14.0240975 -24.69986025  -42.33471775 15.138307 -25.04554325  -41.91346224999999 15.0054375 -25.856793  -44.118743 25.302534 -23.43754  -42.76705425 24.24730275 -23.47809  -42.76993350000001 25.0813095 -22.6047665  -43.2664675 24.2066155 -22.610093  -42.414192 23.110697 -21.782646  -41.41824475 24.02607825 -22.6453165  -41.91477875 23.15138425 -22.650643  -41.917658 23.985391 -21.7773195  -41.42112400000001 24.860085 -21.771993  -41.4153655 23.1920715 -23.51864  -40.709641 20.91886 -20.127752  -39.71369375 21.83424125 -20.9904225  -40.21022775 20.95954725 -20.995749  -41.06250325 22.05546575 -21.823196  -40.06655600000001 22.970847 -22.6858665  -40.56309 22.096153 -22.691193  -39.7108145 21.0002345 -21.863746  -39.2142805 21.8749285 -21.8584195  -38.7177465 22.7496225 -21.853093  -40.21310699999999 21.793554 -20.1224255  -40.56596924999999 22.93015975 -21.8178695  -39.716573 22.668248 -20.117099  -39.21715975 22.70893525 -20.985096  -41.5619165 22.0147785 -20.955199  -41.0653825 22.8894725 -20.9498725  -40.06943525 23.80485375 -21.812543  -38.72062575 23.58362925 -20.9797695  -40.5688485 23.7641665 -20.944546  -38.711988 21.081609 -23.59974  -38.71486725 21.91561575 -22.7264165  -39.21140124999999 21.04092175 -22.731743  -40.06367675 22.13684025 -23.55919  -48.892552 15.381405 -22.559494  -48.1351425 16.07628075 -23.5791065  -48.51483450000001 15.266923 -23.38233125  -46.88513925 15.951088 -22.6829235  -44.8777265 16.520771 -22.806353  -46.12772975 16.64596375 -23.702536  -46.50742175000001 15.836606 -23.50576075  -48.137117 15.152441 -24.2051685  -47.757425 15.96179875 -24.40194375  -47.377733 16.7711565 -24.598719  -47.26483125 15.14173025 -22.48614825  -45.63711050000001 14.9020555 -22.4128025  -46.88711375 15.02724825 -23.3089855  -45.2574185 15.71141325 -22.60957775  -48.51286 16.19076275 -22.75626925  -46.50544725 16.76044575 -22.87969875  -48.133168 17.0001205 -22.9530445  -47.75545049999999 16.8856385 -23.77588175  -47.373784 18.618836 -23.346595  -47.3757585 17.69499625 -23.972657  -47.753476 17.80947825 -23.14981975  -46.12575525 17.5698035 -23.076474  -47.381682 14.923477 -25.850843  -46.13167875 14.79828425 -24.95466  -46.12970425 15.722124 -24.328598  -46.50939625 14.91276625 -24.13182275  -44.879701 15.59693125 -23.432415  -45.259393 14.7875735 -23.23563975  -44.8816755 14.6730915 -24.058477  -47.37970749999999 15.84731675 -25.224781  -47.7593995 15.037959 -25.02800575  -43.63167225 14.54789875 -23.162294  -43.62969775000001 15.4717385 -22.536232  -44.00938975 14.66238075 -22.33945675  -50.19105 12.415688 -21.510677  -48.56280674999999 11.4039275 -21.88864725  -48.8853695 11.5477145 -21.1196025  -50.19317225 11.5784405 -21.9090425  -50.1952945 10.741193 -22.307408  -48.564929 10.56668 -22.28701275  -48.88749175 10.710467 -21.517968  -47.579689 10.679741 -20.728528  -47.25712625 10.535954 -21.49757275  -46.9345635 10.392167 -22.2666175  -49.86848725 12.271901 -22.27972175  -49.8706095 11.4346535 -22.67808725  -49.5459245 12.128114 -23.0487665  -48.240244 11.2601405 -22.657692  -50.199539 9.066698000000001 -23.104139  -48.56705125 9.729432500000001 -22.68537825  -48.89173625 9.035972000000001 -22.314699  -48.889614 9.873219500000001 -21.9163335  -47.58181125 9.8424935 -21.1268935  -47.5839335 9.005246 -21.525259  -47.2592485 9.6987065 -21.89593825  -49.874854 9.760158499999999 -23.47481825  -50.19741675 9.903945499999999 -22.7057735  -49.87273175 10.597406 -23.07645275  -49.550169 10.453619 -23.8454975  -48.24236625 10.422893 -23.0560575  -48.900799 11.84054 -24.586856  -47.91768125 11.1163535 -23.42673675  -49.22548399999999 11.1470795 -24.21617675  -49.54804675 11.2908665 -23.447132  -49.22336175 11.984327 -23.81781125  -44.968328 8.943794 -19.946379  -45.95144575 9.667980500000001 -21.10649825  -46.27613075 8.97452 -20.735819  -46.2740085 9.8117675 -20.3374535  -51.756707 9.930889000000001 -18.880442  -50.74565 10.7548815 -18.9482525  -50.97927475 10.115809 -18.6811585  -51.75773275 10.6570185 -18.4585015  -51.52308225 10.5699615 -19.147536  -51.21392525 10.202866 -17.992124  -51.2894575 11.209034 -19.41463  -50.2018425 10.300729 -18.481875  -50.9803005 10.8419385 -18.259218  -50.74667574999999 11.481011 -18.526312  -51.287406 9.756774999999999 -20.258511  -50.74462425 10.028752 -19.370193  -51.28843175 10.4829045 -19.8365705  -51.5220565 9.843831999999999 -19.5694765  -50.761299 8.8242455 -17.9767735  -50.48157075 9.56248725 -18.22932425  -50.71622125 9.64954425 -17.54028975  -51.4936535 9.46462425 -17.73957325  -51.259003 9.37756725 -18.42860775  -50.789702 9.203453249999999 -19.80667675  -51.0243525 9.290510250000001 -19.11764225  -50.24692025 9.47543025 -18.91835875  -50.5266485 8.7371885 -18.665808  -50.291998 8.650131500000001 -19.3548425  -49.116279 10.844683 -16.705239  -49.16135675 10.01938425 -17.14172275  -49.65906074999999 10.572706 -17.593557  -49.938789 9.83446425 -17.34100625  -49.7041385 9.74740725 -18.03004075  -49.98386675 9.0091655 -17.77749  -49.2064345 9.1940855 -17.5782065  -49.29659 7.543488 -18.451174  -49.25151225 8.36878675 -18.01469025  -49.74921625 8.9221085 -18.4665245  -50.0289445 8.18386675 -18.21397375  -49.794294 8.09680975 -18.90300825  -43.40740425 25.48068925 -24.48671425  -42.36964775 25.01769025 -23.3772495  -43.625931 25.747322 -23.83400675  -43.133119 26.19211 -24.2304735  -41.658309 25.1958455 -24.42642375  -42.91459225 25.92547725 -24.883181  -41.87683575 25.46247825 -23.77371625  -40.6205525 24.7328465 -23.316959  -42.6960655 25.6588445 -25.5358885  -43.90021625 25.03590125 -24.0902475  -43.6816895 24.7692685 -24.742955  -43.1888775 25.2140565 -25.13942175  -42.151121 24.7510575 -24.029957  -43.244636 24.236003 -26.04837  -41.7140675 24.217792 -25.335372  -42.97035075 24.94742375 -25.792129
[...]
<PointData  Vectors="u"> 
<DataArray  type="Float64"  Name="u"  NumberOfComponents="3" format="ascii">7.3914908400001949e+01 4.3751809362693869e+01 -3.3299036794049591e+01  7.8469079944425445e+01 4.4719575734163087e+01 -3.4659921884078280e+01  7.8426337249538875e+01 4.7437422064053841e+01 -3.4264799339278049e+01  7.8422049710535433e+01 4.7548779431985082e+01 -3.7225941564846842e+01  8.3382728020793564e+01 5.1763863805565222e+01 -4.1838628119651624e+01  8.2646743349724403e+01 4.7653404086620490e+01 -3.8679333680738026e+01  8.2911305198263193e+01 5.1127086448496605e+01 -3.8417333742310888e+01  8.3325897268200364e+01 5.1281735246075655e+01 -3.5002863187677633e+01  8.3296361425598320e+01 4.8444423314925913e+01 -3.5325793606598346e+01  8.3301634629175510e+01 4.5200065857103219e+01 -3.5957778755444799e+01  7.3369390278032853e+01 5.2121038939757099e+01 -6.5146687875387585e+01  7.6264056441511954e+01 5.2045888633444697e+01 -6.5618172752786577e+01  7.6178223850751976e+01 5.1619177261641376e+01 -6.7714764676802659e+01  7.6153239722556364e+01 5.3667529473633614e+01 -6.7722250972740213e+01  7.8187917522110823e+01 5.4436879318998315e+01 -6.9487457795400459e+01  7.8274511264484190e+01 5.0754597440648546e+01 -6.7313356841642189e+01  7.8244791170380878e+01 5.2835676886240897e+01 -6.7308965680751470e+01  7.8232257660550644e+01 5.2272032373865976e+01 -6.9535339258824806e+01  7.8256872378790263e+01 5.0145603023225419e+01 -6.9380317480994236e+01  7.8324910097152184e+01 5.1273151475976995e+01 -6.5166723475694283e+01  7.5630863507036096e+01 4.9258728694946754e+01 -6.4296418242900330e+01  7.5474212877122952e+01 5.1165583753359641e+01 -6.3428903215959032e+01  7.4660930208160963e+01 5.0371118263560838e+01 -6.2637501574045899e+01  7.6167054572973015e+01 4.8714286907765874e+01 -6.3617947801740442e+01  7.6137184442962848e+01 5.0608316544786142e+01 -6.3622548708726875e+01  7.4176050664083633e+01 4.8826781962186615e+01 -6.2630708646776945e+01  7.4117640618808522e+01 4.6694498768473700e+01 -6.1745822697594306e+01  7.4087648056004525e+01 4.9768179493083039e+01 -6.5693199020434832e+01  7.3925834255171580e+01 4.8277043419459794e+01 -6.6257416947450153e+01  7.6237657441453933e+01 5.0117437137116816e+01 -6.5633565865750697e+01  7.6105103105181939e+01 4.9554725016998937e+01 -6.7666466497659258e+01  7.4453470872729000e+01 4.7761626285923775e+01 -6.4226167299873097e+01  7.3325285815269595e+01 4.4547373975773773e+01 -6.4911046563629910e+01  7.6247429567050432e+01 4.8178585269158653e+01 -6.5573235013409558e+01  7.6138359789489044e+01 4.7629081222847795e+01 -6.7523173083044412e+01  7.3139200032598296e+01 4.6423398333554388e+01 -6.6131842947602394e+01  7.4171824982591687e+01 4.5692960375984029e+01 -6.2841559151515618e+01  7.3808903254711893e+01 4.6589492633508883e+01 -5.7665888236009515e+01  7.6083054199720877e+01 4.9100988389441817e+01 -6.1723335481449311e+01  7.3160109889020404e+01 4.7335553166069666e+01 -6.0013382111953064e+01  7.3250004314667251e+01 4.9270192163377956e+01 -6.1249466854272164e+01  8.3902936224969238e+01 5.6936884546220313e+01 -7.4626925482437755e+01  8.0666581816983751e+01 5.3642918836437367e+01 -6.8983238349364839e+01  8.0467296474429219e+01 5.2875131432965262e+01 -7.1416555524133173e+01  8.0278704729850560e+01 5.5373016046615994e+01 -7.1424133448763499e+01  7.3667163405642043e+01 4.2200776374341423e+01 -1.0768238726852375e+02  7.6772372112375450e+01 4.3118891213879422e+01 -1.0539224183029893e+02  7.6622897945072069e+01 4.6302151308994702e+01 -1.0774145500089091e+02  7.6666606088671827e+01 4.2167853593529721e+01 -1.0947606335599635e+02  7.8507577179440901e+01 4.1221918331928919e+01 -1.0963813893644910e+02  7.8415972065784914e+01 4.2156787312801910e+01 -1.0545206763922859e+02  7.8505289648483370e+01 4.5400861215070123e+01 -1.0783353062583491e+02  7.8483127987328601e+01 4.9307388060728684e+01 -1.0566772399723413e+02  7.8427587559702673e+01 4.5969198707033101e+01 -1.0354614004198591e+02  7.8333682992128061e+01 4.2803475279981882e+01 -1.0127838662190956e+02  7.5751772444073765e+01 4.4934873439466294e+01 -1.0330920908569867e+02  7.4637315757480593e+01 4.6037177431245155e+01 -1.0116024905499681e+02  7.6312707818298776e+01 4.3758299611293673e+01 -1.0144166081515257e+02  7.6325553268420521e+01 4.6892327064556120e+01 -1.0368602241522140e+02  7.6433999027232872e+01 4.5455345866171321e+01 -1.1219518744783889e+02  7.8591138302649952e+01 4.8064176704758616e+01 -1.1486613036184583e+02  7.8549325502145976e+01 4.8856712794890328e+01 -1.1021212667313297e+02  7.8550591244419124e+01 4.4541389062577998e+01 -1.1227859618806256e+02  7.2882172507096101e+01 4.4807680081134514e+01 -9.2960226645991852e+01  7.6053350472364343e+01 4.4081663280524729e+01 -9.7488372142895017e+01  7.6029399778316176e+01 4.7273058430296942e+01 -9.9527526827100218e+01  7.2876337977686816e+01 4.6353790747383066e+01 -9.7615362365052135e+01  8.4209215732375426e+01 5.4812359207891269e+01 -1.2213023969117182e+02  8.5457341843601029e+01 5.1466561480086376e+01 -1.1673578936696047e+02  8.1168303899355408e+01 5.1501871133918200e+01 -1.1258967717722577e+02  8.0950747905164320e+01 4.7232384793134273e+01 -1.1489008064599498e+02  8.0995619462540162e+01 4.7883776683480598e+01 -1.1013836957535619e+02  8.0659895503556044e+01 4.3724206718384416e+01 -1.1241623668293099e+02  8.3089431740584374e+01 4.7521408080288374e+01 -1.1408467695202243e+02  8.0892125951673890e+01 5.0937683210142303e+01 -1.1764654368087027e+02  8.4263984978842089e+01 3.9781650759720186e+01 -1.1063009136058922e+02  8.1992140423455226e+01 4.4451899346897946e+01 -1.1317815887444158e+02  8.0722911678558035e+01 4.4534487756642619e+01 -1.0769239192588383e+02  8.0571108043724024e+01 4.0453468154043058e+01 -1.0973361640687686e+02  8.0692985397985439e+01 4.1166132299771618e+01 -1.0522045158112768e+02  7.2696814766690579e+01 5.8242692610030147e+01 -8.5303347854874815e+01  7.6099118449841583e+01 5.8263233379042923e+01 -8.9739298674689024e+01  7.6181151049316270e+01 6.1310672181334546e+01 -8.7591084779022907e+01  7.6025131618608057e+01 6.1672034476875027e+01 -9.1349031515439719e+01  7.8498535088847206e+01 6.4709224844500284e+01 -9.7117984503524440e+01  7.8334383281258354e+01 6.0917032856407538e+01 -9.1488081355877370e+01  7.8463265110389187e+01 6.1048494000365025e+01 -9.5436589031710383e+01  7.8464856047789098e+01 6.4510097896563551e+01 -9.3038776411525220e+01  7.8296270110583748e+01 6.4089004538263708e+01 -8.9139515255335553e+01  7.8333741849943891e+01 5.7560322700513929e+01 -9.3607159499092191e+01  8.4296390270676156e+01 7.2909251688865240e+01 -1.1257472745864159e+02  8.4830459997276776e+01 6.5830031275649077e+01 -1.0174363092942556e+02  8.5437980685867828e+01 6.8691956258167849e+01 -1.0761243201977882e+02  8.1180820391078328e+01 6.8056322419542155e+01 -1.0362496689928464e+02  8.0848873596271389e+01 6.4026066367642258e+01 -9.7363224761173640e+01  8.0983733665584040e+01 6.4070564903435539e+01 -1.0168931056580004e+02  8.3032808825658321e+01 6.4369358533498897e+01 -1.0556044019583926e+02  8.3025874255167182e+01 6.3407238758478087e+01 -1.0135578327049595e+02  8.3265978008878818e+01 6.3273037294148757e+01 -9.7559935093205425e+01  8.5213035422827602e+01 7.0136866165398857e+01 -1.0684373813316276e+02  8.0993509015778471e+01 6.7880145401209674e+01 -9.9187177047708829e+01  8.2872584433294975e+01 7.0198707857069408e+01 -1.0193311883071047e+02  8.2968104336003236e+01 6.6559606690113966e+01 -9.9486739407679352e+01  8.4259775098076048e+01 7.1323953406080051e+01 -9.3465991957345182e+01  8.3742640502037219e+01 6.7237012548658313e+01 -9.5691391867234628e+01  8.1750680293641508e+01 7.1063705344866051e+01 -9.8884325120538449e+01  8.0667118108249340e+01 6.7619848973949814e+01 -9.4997450544107679e+01  8.0626707445019989e+01 6.3772804070756031e+01 -9.3257203746070360e+01  8.0692181149426858e+01 6.0314376929410187e+01 -9.5669916174910725e+01  8.0647072500121894e+01 6.7118739504853778e+01 -9.0691409895332214e+01  8.4247363954062152e+01 5.6210987326245679e+01 -1.0323763023708139e+02  8.3668921819176646e+01 5.9845613735751300e+01 -1.0047299793286683e+02  8.1906451770169923e+01 6.1189390153718577e+01 -1.0510275639378871e+02  8.0705714308136777e+01 6.0362090160522065e+01 -9.9724635197388196e+01  8.0691301500984224e+01 5.6596768103045640e+01 -9.7695276949475726e+01  7.2334075222402049e+01 6.8717731714873352e+01 -6.3653174748271525e+01  7.5862196822001792e+01 6.9367383295909477e+01 -6.7122255178700101e+01  7.5948163508757673e+01 7.1622438991936207e+01 -6.4690984200967279e+01  7.5693799631292691e+01 7.2795039559599687e+01 -6.8130649842997769e+01  7.8162638166768559e+01 7.6113628409351151e+01 -7.1775743217506644e+01  7.8063327213034768e+01 7.1487862057872448e+01 -6.7415878062381537e+01  7.8093664249343277e+01 7.2463712609356747e+01 -7.0934791331284984e+01  7.8136320079329678e+01 7.4994486710718945e+01 -6.8153264417441434e+01  7.8040701424020142e+01 7.3829692408204195e+01 -6.4687840665473971e+01  7.8042353814182093e+01 6.8948526988182877e+01 -6.9940302745359688e+01  8.4281255206156587e+01 8.4742816782376380e+01 -8.1578205647614652e+01  8.4246856630969390e+01 7.5801450759799508e+01 -7.2965492725195489e+01  8.5185722689957259e+01 8.0138653587860176e+01 -7.7455898261956037e+01  8.0755790680479265e+01 7.5585606400704435e+01 -7.4620116493270558e+01  8.0218236199446977e+01 7.1099241231363777e+01 -7.0203270482254894e+01  8.0382511735031443e+01 7.2022119529195720e+01 -7.3785176985596252e+01  8.2448602769988725e+01 7.5979464868212972e+01 -7.6759921486904616e+01  8.2248043945405030e+01 7.3805117316055174e+01 -7.3222367289242214e+01  8.1830562752976533e+01 7.3279779927227835e+01 -7.0359488033492781e+01  8.5148083340259731e+01 8.0748851266628350e+01 -7.6710960310196910e+01  8.0485302293761350e+01 7.4619082192026042e+01 -7.1031330358826224e+01  8.2655400154003956e+01 7.9742892093180643e+01 -7.2727117992890186e+01  8.2285936300289080e+01 7.6072266079034449e+01 -7.0729056780462798e+01  8.0894190841266095e+01 7.9725550395355611e+01 -7.5745700614817622e+01  8.0665076258680131e+01 7.8359361867746742e+01 -7.1935739746413915e+01  8.0226702668673028e+01 7.3635583769199542e+01 -6.7524812933360863e+01  8.2112744495607828e+01 7.6248599065686875e+01 -6.7816500970886281e+01  8.0182774143263316e+01 7.7272586326348119e+01 -6.8250852867428506e+01  8.3372827057729140e+01 6.8558516300440758e+01 -7.6870065635900232e+01  8.2115269870377887e+01 7.0817442552363829e+01 -7.3468616610389020e+01  8.1489939226199553e+01 7.3497738830271643e+01 -7.6722165156425390e+01  8.0270136790892437e+01 6.8395707943662259e+01 -7.2927381965179848e+01  7.3744379327459995e+01 7.3713150306375823e+01 -1.0827662186515319e+02  7.7376512905549816e+01 7.0520993415367016e+01 -1.0353923893986619e+02  7.5824905325810391e+01 6.8633480444937405e+01 -1.0767464877723511e+02  7.6813153341550759e+01 7.4213263416077552e+01 -1.0537051489991705e+02  7.8615976194435461e+01 7.3230468925885972e+01 -1.0116843217307313e+02  7.6564730085735619e+01 6.9816093880423054e+01 -9.9468990658559747e+01  7.6693699562586914e+01 6.9919494953781211e+01 -1.0373816327162471e+02  7.4698633826129722e+01 6.5474403741031566e+01 -1.0704955333204656e+02  7.4937134350973537e+01 6.6539930521295503e+01 -1.0240010393175056e+02  7.4636158485117619e+01 6.6478925497734295e+01 -9.7537050872209150e+01  7.6718975456883427e+01 7.4224367126047042e+01 -1.1009478968666899e+02  7.8678173302741300e+01 7.3493131828157118e+01 -1.1063493031805507e+02  7.6690256765026504e+01 6.9663312156395278e+01 -1.0829973350031852e+02  7.8657258433512681e+01 7.3491466832469115e+01 -1.0583669693326584e+02  7.5694399013443658e+01 7.5375325487367178e+01 -1.0292823650152597e+02  7.6523687664947943e+01 7.3892173756181634e+01 -1.0082858938122791e+02  7.4522894667901198e+01 7.5852848144495795e+01 -9.9999036926344928e+01  7.4854833091003229e+01 7.0979426449965274e+01 -9.9285060483811179e+01  7.3888794413923762e+01 7.2141903160523611e+01 -9.0621793091970332e+01  7.4232066145826678e+01 6.9746718304790988e+01 -9.4468292055678972e+01  7.2467590523922681e+01 7.5289043251022036e+01 -9.5366295641640761e+01  7.6419298138856703e+01 7.3365906942612241e+01 -9.6544534200177864e+01  7.3914301028475748e+01 5.7818477202841052e+01 -1.0040731441201838e+02  7.6440939139549542e+01 6.1845335935144263e+01 -1.0435238348701033e+02  7.6572136434129334e+01 6.5928359263386014e+01 -1.0204454245793259e+02  7.6451180757215567e+01 6.5707012128934124e+01 -1.0645714868788890e+02  7.8619585609078200e+01 6.9245200835442731e+01 -1.0405099049551475e+02  7.8709119086953891e+01 6.9089542153001005e+01 -1.0863327575122429e+02  7.8609028910449055e+01 6.4934477289464027e+01 -1.0654177694183663e+02  7.4237826073496848e+01 6.2520553202791106e+01 -9.9449206810758696e+01  7.2848432272838906e+01 6.1536283809383349e+01 -1.0491001908605020e+02  8.0905324077385828e+01 6.8307373872091347e+01 -1.0880807605672845e+02  8.0901773017809333e+01 7.2771924692205005e+01 -1.0610740518141108e+02  8.0794675596649185e+01 7.2961678498179353e+01 -1.1112530526609896e+02  7.3899500018704103e+01 7.3985625679552953e+01 -1.2857792802974802e+02  7.6752199554910504e+01 6.9284103384025642e+01 -1.3314540107655878e+02  7.6678944790940065e+01 7.4126410677601015e+01 -1.3590908182000931e+02  7.4276879914370440e+01 6.9931525811278533e+01 -1.3238604133649582e+02  7.4632864943592452e+01 6.5274583227660258e+01 -1.3563676178243168e+02  7.6636588177958032e+01 6.4348843913365826e+01 -1.3571475090332706e+02  7.6786728875530869e+01 6.9110656636031493e+01 -1.3891786062551245e+02  7.8959326605933327e+01 7.3101835161313531e+01 -1.4209026859555757e+02  7.8866880411413874e+01 6.8037187254084870e+01 -1.3890431865986150e+02  7.8807580127330553e+01 6.3256910237899604e+01 -1.3560629132075309e+02  7.5915783236593597e+01 6.8547852327388881e+01 -1.2719452807491831e+02  7.4829470553134726e+01 6.5647172738947830e+01 -1.3106647587337551e+02  7.4718049189901834e+01 6.4887991752113535e+01 -1.2594306986500104e+02  7.6514012726539264e+01 6.4744834310273447e+01 -1.3029688579145065e+02  7.3935147164665779e+01 5.4103417103102451e+01 -1.3814342784820809e+02  7.6812415925487016e+01 5.9135882369058301e+01 -1.3789904875020764e+02  7.6690701808253735e+01 5.8043856524117679e+01 -1.4349051557160817e+02  7.6764181731713947e+01 6.3696582405363650e+01 -1.4146765067502662e+02  7.8935176988373073e+01 6.7499598591641430e+01 -1.4491152548087126e+02  7.8914285681710368e+01 6.1630057078896421e+01 -1.4728139011502475e+02  7.8842433832853303e+01 6.2613385582734509e+01 -1.4135640290705848e+02  7.5838700964139875e+01 5.6978656654949674e+01 -1.3276147245919816e+02  7.4309916113408377e+01 5.9862802410892023e+01 -1.3724682868124418e+02  7.4867864332182236e+01 6.1522786669215407e+01 -1.3300505711752228e+02  7.4587777544741698e+01 5.8142641480210379e+01 -1.2929849808969550e+02  7.6607292602619836e+01 5.9788157060509974e+01 -1.3255342232953421e+02  7.3780573831966180e+01 5.6793463406380148e+01 -1.1811522946303810e+02  7.6342651815527617e+01 6.0423000828206980e+01 -1.2727550285722073e+02  7.2622450162838689e+01 5.8701499988001977e+01 -1.2404562915216907e+02  7.2955206376445659e+01 6.2325412102621662e+01 -1.2961666871126818e+02  7.2934110536464999e+01 6.0606481198485476e+01 -1.2321117450451671e+02  8.4063369340362200e+01 7.0381733821694354e+01 -1.5707315126558314e+02  8.1281007242910007e+01 6.6305161561788566e+01 -1.4483943742309285e+02  8.1111922866943132e+01 6.5398603421762687e+01 -1.5112994033650128e+02  8.1069018888373336e+01 7.1550365321311475e+01 -1.4856543202292193e+02  7.5368123881292760e+01 8.3220611817752555e+01 -1.6221338998414384e+02  7.6121133421825846e+01 8.6716250398262787e+01 -1.5305146248551708e+02  7.6763409918197809e+01 8.5967905893250986e+01 -1.5976022993286259e+02  7.7289286876765971e+01 9.0993352943688535e+01 -1.5825000654814929e+02  7.4735667197036875e+01 8.4986345295676273e+01 -1.5531213993041368e+02  7.7934534334139826e+01 9.1607605632280112e+01 -1.6285121977929461e+02  7.4666806712329077e+01 8.4920924104787673e+01 -1.4737678424304181e+02  7.7535735491416929e+01 8.7953614911472343e+01 -1.5841184532355825e+02  7.6984311881233154e+01 9.2574402194367522e+01 -1.5640981559846824e+02  7.6146758284670980e+01 9.2678676064803540e+01 -1.4963225008896239e+02  7.4168668936690537e+01 7.2772443862223056e+01 -1.5103710845555244e+02  7.5856537207376974e+01 8.0507069536819856e+01 -1.5604817801727657e+02  7.4248876514147184e+01 7.8897255763641752e+01 -1.4960898291285250e+02  7.2089780680103388e+01 7.7464232046982303e+01 -1.5807589053840761e+02  7.8843390160578167e+01 8.5564979628568565e+01 -1.7287298686981296e+02  7.8089550544849885e+01 8.6702990853612633e+01 -1.6554469245625506e+02  7.8614265686711406e+01 9.2181467869672574e+01 -1.6859556240039296e+02  7.8469731438526068e+01 9.0580398115238509e+01 -1.7030431364090947e+02  7.7126684526413101e+01 8.4847373792413535e+01 -1.6738055754709032e+02  7.5462482596970546e+01 7.3877763413230909e+01 -1.5901568456167223e+02  7.5779094688615132e+01 7.9340111348535800e+01 -1.6356914074062942e+02  7.7433504027140515e+01 8.1057316976228805e+01 -1.6205878418619440e+02  7.7988544962300040e+01 7.9565575700196050e+01 -1.6948907432635613e+02  7.7313273801370116e+01 7.3930953089681779e+01 -1.6525564259628223e+02  8.0053594835798606e+01 1.0527074976644134e+02 -1.6224927083819242e+02  7.8562064390861011e+01 9.7523644172328503e+01 -1.6792943837174261e+02  7.8742126739183007e+01 9.5891272854507505e+01 -1.6038058599062572e+02  7.8905946936951736e+01 9.4016632279715381e+01 -1.6735026823253011e+02  7.8570514572458592e+01 8.8693879483124320e+01 -1.6447302957629893e+02  7.8781759858522904e+01 8.6867573194112396e+01 -1.7093288068009036e+02  7.8567430055536875e+01 8.9863814400914293e+01 -1.7180211522848626e+02  7.9407921591461175e+01 7.3120279348488538e+01 -1.7928324728954703e+02  7.8504116665136465e+01 8.2366354648594850e+01 -1.7590788312694289e+02  7.8493379058405282e+01 8.1506315180677262e+01 -1.6823766588773785e+02  7.9359388217122401e+01 7.9977796226576416e+01 -1.7549904013332906e+02  7.8625156097921661e+01 7.3808112592403816e+01 -1.7191143216573803e+02  7.5276132353296916e+01 6.5035302237392372e+01 -6.3053453693195017e+01  7.5996560505261598e+01 6.8764418705548493e+01 -6.4303206442754359e+01  7.4879619215854575e+01 6.7012148850379575e+01 -6.2042935166985494e+01  7.4267366940167307e+01 6.6153344433520459e+01 -6.1208769322467838e+01  7.5952046163599590e+01 6.4852757535982406e+01 -6.2917570810964492e+01  7.3952968434310222e+01 6.4378959984926965e+01 -6.1440376937154937e+01  7.5933317412324215e+01 6.6816508168774817e+01 -6.2422672711765955e+01  7.8103665202719824e+01 6.8142519842551636e+01 -6.4252278806004739e+01  7.3993518495258783e+01 6.2101948576011679e+01 -6.1109235602800325e+01  7.3262249645672412e+01 6.6282384821587371e+01 -6.4593358640621503e+01  7.3185389834129140e+01 6.4648501702969298e+01 -6.5554081249971730e+01  7.4145370987019973e+01 6.3469415644954751e+01 -6.3405177405939597e+01  7.5980293432208811e+01 6.6710169308399841e+01 -6.4786038400238667e+01  7.2806975871103674e+01 6.0385643783682774e+01 -6.4955761434955022e+01  7.6005086223749629e+01 6.2488583794580386e+01 -6.5407502161907388e+01  7.4056092632405438e+01 6.1113927130348507e+01 -6.2457573196294440e+01  7.6014866190930505e+01 6.4653427581924035e+01 -6.5199201026649405e+01  7.8150198577253676e+01 6.6013685573842793e+01 -6.4705892988358698e+01  7.6077548478982592e+01 6.2894608785295929e+01 -6.3283523648937170e+01  7.8138999154065885e+01 6.3911700232532887e+01 -6.5087010383288487e+01  7.2458684538966352e+01 6.2530221909238747e+01 -6.5805476556714837e+01  7.3394805717893050e+01 6.1293954085273832e+01 -5.6696629530508218e+01  7.6156820751621552e+01 6.3239802658882411e+01 -5.8957204519675784e+01  7.5985818666553953e+01 6.3078463201238158e+01 -6.1055284257540585e+01  7.5949371416323388e+01 6.4973816491421971e+01 -6.0737533869723826e+01  7.8191508891273060e+01 6.4127803704896323e+01 -6.2793550576321067e+01  7.8184488415147371e+01 6.6178808824367962e+01 -6.2347456186212042e+01  7.8187082241058690e+01 6.4303816612851179e+01 -6.0528375109107188e+01  7.3189540724187140