<?xml version="1.0"?>
<VTKFile type="UnstructuredGrid"  version="0.1"  >
<UnstructuredGrid>
<Piece  NumberOfPoints="5132" NumberOfCells="22171">
<Points>
<DataArray  type="Float64"  NumberOfComponents="3"  format="ascii">-30.883759 -5.540195 -46.384261  -27.5935665 -4.6031185 -44.9963395  -28.283989 -2.96158 -44.7082705  -28.9891465 -4.698823 -44.114644  -30.1786015 -3.802952 -46.9778875  -29.488179 -5.4444905 -47.2659565  -29.473444 -2.065709 -47.571514  -28.7830215 -3.7072475 -47.859583  -28.092599 -5.348786 -48.147652  -27.094534 -3.857451 -41.845027  -34.883615 -2.546811 -43.733822  -32.3891285 -3.2972205 -41.8038555  -33.0450485 -1.846558 -41.39152  -33.701049 -3.3269135 -40.7460045  -32.518483 -4.107016 -37.758187  -31.2065625 -4.077323 -38.816038  -31.8624825 -2.6266605 -38.4037025  -31.206482 -1.146305 -39.049218  -30.550562 -2.5969675 -39.4615535  -29.894642 -4.04763 -39.873889  -33.064466 -4.9063235 -41.092735  -34.247032 -4.126221 -44.0805525  -33.610449 -5.705631 -44.427283  -31.7525455 -4.8766305 -42.150586  -41.059 -11.122607 -36.420409  -39.252016 -11.37415475 -36.02388675  -40.18054025 -12.01112325 -37.06426399999999  -40.470527 -11.25262175 -37.0053885  -39.882054 -11.3826365 -37.590368  -38.663543 -11.5041695 -36.60886625  -39.59206725 -12.141138 -37.6492435  -39.3020805 -12.8996395 -37.708119  -38.37355625 -12.262671 -36.66774175  -37.445032 -11.6257025 -35.6273645  -40.76901325 -11.8811085 -36.47928450000001  -40.4790265 -12.63961 -36.53816  -38.96202925 -12.13265625 -36.08276225  -39.8905535 -12.76962475 -37.1231395  -39.840489 -11.24414 -35.43890725  -39.55050225 -12.0026415 -35.49778275  -38.621978 -11.365673 -34.4574055  -38.033505 -11.49568775 -35.042385  -39.899053 -14.156613 -36.655911  -38.6720425 -12.89115775 -36.14163775  -38.97052875 -13.5196445 -35.61553375  -39.2605155 -12.761143 -35.55665825  -37.74351825 -12.25418925 -35.1012605  -38.33199125 -12.1241745 -34.51628100000001  -38.0420045 -12.882676 -34.57515650000001  -39.60056675 -13.52812625 -37.182015  -40.18903975000001 -13.3981115 -36.5970355  -38.705108 -11.642666 -38.760327  -38.07507 -11.63418425 -37.19384574999999  -39.00359425000001 -12.27115275 -38.234223  -39.293581 -11.51265125 -38.1753475  -36.184956 -11.608739 -32.494402  -36.814994 -11.61722075 -34.06088325  -37.11348025 -12.2457075 -33.53477925  -37.403467 -11.487206 -33.47590375  -42.147675 -13.405063 -34.349349  -40.8926335 -12.2593685 -33.83865775  -40.65699524999999 -12.955982 -33.88561224999999  -41.87550625 -12.834449 -34.867114  -41.60333749999999 -12.263835 -35.384879  -40.62046475 -11.6887545 -34.35642275  -40.3848265 -12.385368 -34.40337725  -39.1663155 -12.506901 -33.4218755  -39.40195375 -11.8102875 -33.374921  -39.637592 -11.113674 -33.3279665  -40.348296 -11.1181405 -34.87418775  -40.07612725 -10.5475265 -35.39195275  -39.36542325 -10.54306 -33.8457315  -39.129785 -11.2396735 -33.892686  -38.85761625 -10.6690595 -34.41045099999999  -39.0932545 -9.972446000000001 -34.3634965  -40.11265775 -11.814754 -34.92114225  -38.89414675 -11.936287 -33.9396405  -41.33116875 -11.693221 -35.902644  -37.127509 -8.822285000000001 -32.306584  -38.3825505 -9.9679795 -32.81727525  -36.89187075 -9.518898500000001 -32.3535385  -37.8747435 -10.093979 -33.38199475  -38.14691225 -10.664593 -32.86422975  -37.63910525 -10.7905925 -33.42894925  -36.6562325 -10.215512 -32.400493  -38.11038175 -9.397365500000001 -33.33504025  -37.911274 -11.3612065 -32.91118425000001  -36.42059425 -10.9121255 -32.4474475  -37.67563575 -12.05782 -32.95813875  -43.259332 -10.443417 -33.993606  -41.72637625 -10.038134 -33.5718505  -41.448462 -10.7785455 -33.66078625  -42.709249 -10.6132145 -34.60030675  -42.159166 -10.783012 -35.2070075  -41.17629325 -10.2079315 -34.17855125  -40.898379 -10.948343 -34.267487  -39.91550625 -10.3732625 -33.23903075  -40.1934205 -9.632851 -33.150095  -42.98141775 -11.1838285 -34.08254175  -41.17054775 -11.518957 -33.749722  -42.43133475 -11.353626 -34.6892425  -42.7035035 -11.92424 -34.17147749999999  -42.1534205 -12.0940375 -34.77817825  -41.88125175 -11.5234235 -35.29594325  -42.42558925 -12.6646515 -34.26041325  -40.62621025 -10.377729 -34.785252  -39.6433375 -9.8026485 -33.75679574999999  -41.609083 -10.9528095 -35.81370825  -38.66046475 -9.227568000000002 -32.7283395  -42.1239495 -10.49829525 -32.94182175  -41.84603525 -11.23870675 -33.0307575  -40.3130795 -10.83342375 -32.609002  -40.03516525 -11.57383525 -32.69793775  -40.4327385 -12.0339965 -32.067909  -40.71065275 -11.293585 -31.97897325  -40.988567 -10.5531735 -31.8900375  -40.59099375 -10.09301225 -32.52006625  -41.568121 -11.97911825 -33.11969325  -41.29020675 -12.71952975 -33.208629  -38.717802 -10.66293 -29.786469  -38.32022875 -10.20276875 -30.41649775  -39.45561125 -10.1478905 -31.468282  -39.17769699999999 -10.888302 -31.55721775  -38.78012375 -10.42814075 -32.1872465  -39.058038 -9.68772925 -32.09831075  -37.9226555 -9.7426075 -31.0465265  -39.8531845 -10.60805175 -30.83825325  -39.57527025 -11.34846325 -30.927189  -37.52508225 -9.28244625 -31.67655525  -39.799527 -12.27044875 -32.74489225  -38.0845905 -10.89938225 -30.46345225  -37.451379 -11.1358345 -31.1404355  -37.68701725 -10.439221 -31.093481  -38.5444855 -11.12475425 -32.234201  -38.94205875 -11.5849155 -31.60417225  -38.30884725 -11.82136775 -32.2811555  -37.289444 -9.979059750000001 -31.72350975  -37.05380575 -10.67567325 -31.77046425  -36.8181675 -11.37228675 -31.81741875  -42.160798 -8.135351 -35.94834  -41.59944775 -8.23657925 -36.54582925  -40.3411255 -8.40831275 -35.63539025  -41.32399825 -8.983393250000001 -36.6638465  -40.4871985 -9.831435500000001 -37.37935299999999  -39.77977525 -8.509541 -36.2328795  -40.762648 -9.084621500000001 -37.26133575  -39.50432575 -9.256355000000001 -36.35089675  -38.521453 -8.681274500000001 -35.3224405  -41.0380975 -8.3378075 -37.1433185  -41.8853485 -8.882165000000001 -36.06635725  -41.609899 -9.628979000000001 -36.1843745  -40.065676 -9.155126750000001 -35.7534075  -41.04854874999999 -9.730207250000001 -36.78186375  -40.90247575 -8.3070845 -35.03790100000001  -40.62702625 -9.053898500000001 -35.15591825  -39.6441535 -8.478818 -34.127462  -39.08280325 -8.580046250000001 -34.72495125  -39.7902265 -9.901940750000001 -35.87142475  -40.35157675 -9.800712499999999 -35.2739355  -38.80735375 -9.326860250000001 -34.8429685  -39.368704 -9.225632000000001 -34.24547925  -40.77309925 -10.47702125 -36.89988099999999  -41.3344495 -10.375793 -36.30239175  -39.915397 -8.540264000000001 -38.338297  -40.47674725 -8.43903575 -37.74080775  -39.218425 -8.610769250000001 -36.83036875  -40.20129774999999 -9.185849750000001 -37.858825  -37.82448100000001 -8.751779750000001 -33.81451225  -38.38583125 -8.650551500000001 -33.217023  -40.66898725 -7.7286085 -35.4305655  -39.410665 -7.900342 -34.5201265  -38.84931475 -8.00157025 -35.11761575  -39.1771765 -7.321866 -34.912791  -40.107637 -7.82983675 -36.02805475  -38.9849365 -8.03229325 -37.22303325  -39.54628675 -7.931065 -36.625544  -38.61582625 -7.42309425 -35.51028025  -38.2879645 -8.1027985 -35.715105  -38.054476 -7.5243225 -36.1077695  -38.15234275 -8.0720755 -33.6096875  -36.8940205 -8.243809000000001 -32.6992485  -37.91885425 -7.4935995 -34.002352  -37.5909925 -8.173303750000001 -34.20717675  -36.660532 -7.665333 -33.09191300000001  -36.193555 -6.508381 -33.877242  -37.68536575 -6.9151235 -34.3950165  -36.4270435 -7.086857 -33.4845775  -37.35750400000001 -7.59482775 -34.59984125  -37.1240155 -7.01635175 -34.99250575000001  -39.54003025 -10.6824005 -35.93410274999999  -38.5571575 -10.10732 -34.9056465  -38.0210605 -10.242194 -35.4477965  -38.27125675 -9.461734250000001 -35.3851185  -39.2541295 -10.03681475 -36.41357475  -38.682328 -8.745643250000001 -37.37251875  -38.96822874999999 -9.391229000000001 -36.89304675  -37.73515974999999 -9.596608250000001 -35.9272685  -37.985356 -8.816148500000001 -35.8645905  -37.449259 -8.951022500000001 -36.4067405  -36.59141200000001 -8.957159000000001 -32.848734  -37.57428475 -9.532239500000001 -33.87719025  -37.288384 -8.886653750000001 -34.35666225  -37.03818775 -9.667113500000001 -34.41934025  -36.055315 -9.092033000000001 -33.390884  -34.983121 -9.361781000000001 -34.475184  -35.519218 -9.226907000000001 -33.933034  -36.752287 -9.021527750000001 -34.89881225  -36.50209074999999 -9.801987500000001 -34.96149025  -36.21619 -9.156401750000001 -35.44096225  -37.7518675 -8.2376725 -36.257255  -36.3579235 -8.378683000000001 -33.2413985  -37.0548955 -8.30817775 -34.74932675  -35.8218265 -8.513557 -33.7835485  -35.588338 -7.935081 -34.176213  -36.12443500000001 -7.800207 -33.634063  -35.8909465 -7.221731 -34.02672750000001  -36.821407 -7.72970175 -35.14199125  -36.5187985 -8.44305175 -35.29147675  -35.2857295 -8.648431 -34.3256985  -36.239811 -5.769841 -42.301123  -32.4085845 -6.4013855 -41.4215255  -34.2669635 -7.334079 -43.6380655  -34.92513 -5.737736 -43.364203  -35.5816445 -7.366184000000001 -42.5749855  -33.7232655 -6.4334905 -40.3584455  -34.923478 -8.962527 -42.848848  -33.065099 -8.029833499999999 -40.63230799999999  -31.20672 -7.09714 -38.415768  -29.492242 -8.761414 -46.791509  -26.1745275 -7.710706 -45.4194625  -26.906192 -6.099207 -45.23732800000001  -27.6060135 -7.805521000000001 -44.5592565  -28.7924205 -7.055099999999999 -47.4695805  -28.060756 -8.666599 -47.651715  -27.3609345 -6.960284999999999 -48.3297865  -26.62927 -8.571783999999999 -48.511921  -25.719785 -6.849628 -42.327004  -32.229362 -2.281585 -45.739071  -29.661948 -3.069518 -43.79204900000001  -30.851403 -2.173647 -46.6552925  -31.5565605 -3.91089 -46.061666  -43.271254 -5.266344 -35.15486  -41.58821675 -5.51361275 -34.75335525  -41.73324375 -4.894125750000001 -34.68740825  -42.1365375 -5.44579325 -34.12820075  -41.001821 -5.625242500000001 -33.1015415  -40.45350025 -5.693062 -33.726696  -40.59852725 -5.073575 -33.660749  -40.1952335 -4.5219075 -34.2199565  -40.0502065 -5.141394500000001 -34.2859035  -39.9051795 -5.7608815 -34.3518505  -42.72293325 -5.3341635 -35.7800
[...]
<PointData  Vectors="u"> 
<DataArray  type="Float64"  Name="u"  NumberOfComponents="3" format="ascii">7.3895762715430948e+01 -5.8278341292180489e+00 -4.8518152078409983e+01  7.8379294118886207e+01 -4.8304356871387890e+00 -4.7555893961075149e+01  7.8416685687582444e+01 -3.2864684312895842e+00 -4.9392105220693075e+01  7.8406826290183730e+01 -5.4600318174581481e+00 -5.0963428941604235e+01  7.4510085512667189e+01 -3.6632359814487012e+00 -4.7568649702551653e+01  7.4735618901333964e+01 -5.1227094728969167e+00 -4.6005272992468619e+01  7.3886412765663408e+01 -1.9963617686960560e+00 -4.5714201261801840e+01  7.3978434793518815e+01 -3.8680302432750144e+00 -4.4223237843665757e+01  7.3902371194126076e+01 -4.7604811037160886e+00 -4.2570561940125280e+01  8.3350429415582752e+01 -4.8833005237691882e+00 -5.3505285866383581e+01  7.3936231349077829e+01 -3.5274748600959529e+00 -5.8708434944615483e+01  7.8421169656296570e+01 -4.7932399339463627e+00 -6.0381910253937789e+01  7.8428757716485876e+01 -2.8173478692900629e+00 -6.2419504956003188e+01  7.8413294355353685e+01 -5.2839136593006888e+00 -6.4453888556873423e+01  8.3495671432678449e+01 -7.6736194596703946e+00 -7.0874816817131773e+01  8.2592347092087934e+01 -7.1795106259284545e+00 -6.5536338021611087e+01  8.2846775311877579e+01 -5.0481843473740096e+00 -6.8378798489933388e+01  8.3428366586323293e+01 -1.9119954038423921e+00 -6.6523244716701939e+01  8.3328863097735052e+01 -3.8456806414650218e+00 -6.4193127627106037e+01  8.3359137700356868e+01 -6.2088699878969145e+00 -6.1754836585748578e+01  7.8404892531151901e+01 -7.3965527963321884e+00 -6.2158049484944605e+01  7.4086222203774724e+01 -5.7095806835722946e+00 -5.6939894944567229e+01  7.3888911134342280e+01 -7.1332510626030876e+00 -5.4945731180289449e+01  7.8435147359570180e+01 -6.7686623707505760e+00 -5.8287861767056853e+01  7.3279160226839593e+01 -2.3104938622216395e+01 -7.5455670624027093e+01  7.6333590887157229e+01 -2.3862870033191154e+01 -7.5460274115629289e+01  7.5697554082827608e+01 -2.3837340057160993e+01 -7.2615341655388946e+01  7.5380024752046026e+01 -2.2168253555894616e+01 -7.3621168679985047e+01  7.4894584760916743e+01 -2.1979200000547635e+01 -7.2682531908004137e+01  7.6240561521154262e+01 -2.3053845394802316e+01 -7.3297767932462563e+01  7.4229939117930144e+01 -2.2764464876214042e+01 -7.1434900100519613e+01  7.4353990925027787e+01 -2.3277342498364671e+01 -6.9382231079576172e+01  7.6256834465320395e+01 -2.4012461546103033e+01 -7.1788294575544825e+01  7.8423903956970818e+01 -2.4304093546395666e+01 -7.4480341400630195e+01  7.4075311851944846e+01 -2.4639194230130766e+01 -7.3736307494680702e+01  7.4015558441789224e+01 -2.5929766152421692e+01 -7.2957944775920907e+01  7.6298392576610922e+01 -2.4856926478904288e+01 -7.3917626190261799e+01  7.4447280643260498e+01 -2.4530124138769015e+01 -7.1395250074930274e+01  7.6230820454037897e+01 -2.4608617305476908e+01 -7.7849962929072518e+01  7.6249940799724257e+01 -2.5738481536467607e+01 -7.6153139411489036e+01  7.8309830320030827e+01 -2.6151601830039247e+01 -7.9271999730924094e+01  7.8369842887668653e+01 -2.5231900593630975e+01 -7.6893494471598203e+01  7.3818389845115021e+01 -2.6729131944117377e+01 -6.9343389624773181e+01  7.6236356302566122e+01 -2.5804638304337352e+01 -7.2346820119966253e+01  7.6135939472316693e+01 -2.7728857277567396e+01 -7.2935312456910083e+01  7.6221531586949624e+01 -2.6786451461007044e+01 -7.4589437498403782e+01  7.8396933639234760e+01 -2.6256714183504368e+01 -7.5197466742445528e+01  7.8368137042618713e+01 -2.7239635868420638e+01 -7.7512551531676706e+01  7.8365764644764624e+01 -2.8220935456994713e+01 -7.5727245493379996e+01  7.4659378065093250e+01 -2.4750654837527588e+01 -6.9190765054064812e+01  7.3152629486993206e+01 -2.6754029035544555e+01 -7.1464053364599124e+01  7.4022028641410941e+01 -2.0249645304364094e+01 -6.7119178309949930e+01  7.6123139142898211e+01 -2.2244690258459322e+01 -7.1121355252418326e+01  7.3302800500987374e+01 -2.1615603793887786e+01 -6.8941013812378444e+01  7.3281543551087793e+01 -2.1205808996102387e+01 -7.0945047490283315e+01  8.4330906664250179e+01 -2.9710793628684101e+01 -8.3332551218199143e+01  8.0836169766791159e+01 -2.6664987881333211e+01 -7.8195822868421757e+01  8.0699721239539670e+01 -2.8783693696448601e+01 -7.8777265683355722e+01  8.0556466375580229e+01 -2.7792510220233169e+01 -8.0726716704817306e+01  7.3318717742945964e+01 -3.0358592799701302e+01 -7.7815628386685333e+01  7.6099761795606597e+01 -2.9430303785940900e+01 -8.1341084147684285e+01  7.6159543748238022e+01 -3.0478546830229035e+01 -7.9594647741874780e+01  7.4009434284595443e+01 -2.7801372684896808e+01 -7.7618568229570158e+01  7.3913065229612442e+01 -2.6253146426366499e+01 -7.7815708391675400e+01  7.6165079112548568e+01 -2.7509395378085543e+01 -8.0797492327367763e+01  7.6159591396904702e+01 -2.8456158712855604e+01 -7.9103497571221752e+01  7.8260213594293290e+01 -3.0148758233041789e+01 -8.0600949101365259e+01  7.8263761290062277e+01 -2.9144861137976847e+01 -8.2293760814212206e+01  7.8206594062047316e+01 -2.7991170849931326e+01 -8.3944252703388969e+01  7.6055970476873654e+01 -2.5570476271652588e+01 -8.0039701975982680e+01  7.6147446225801374e+01 -2.3662451101634453e+01 -7.9291196207790705e+01  7.8271409034886048e+01 -2.5899985210546379e+01 -8.3180177910590231e+01  7.8312577535413780e+01 -2.7054332420707027e+01 -8.1586911504209283e+01  7.8289695175168092e+01 -2.5069387440035847e+01 -8.0795004612446832e+01  7.8245297181856543e+01 -2.3894166530175379e+01 -8.2261230691546530e+01  7.6112658552034389e+01 -2.6535584301848889e+01 -7.8535171188524885e+01  7.8329336135106146e+01 -2.8116281456399925e+01 -7.9953306579280337e+01  7.3104170647821149e+01 -2.4347923640436424e+01 -7.7132449488855343e+01  8.3759368719278314e+01 -2.4754020760087283e+01 -9.0781567984841104e+01  8.0456488831240392e+01 -2.6380451134313340e+01 -8.6680698377692607e+01  8.4280438606226625e+01 -2.5286783699578457e+01 -8.8449651696773756e+01  8.0533760968672453e+01 -2.5428878660284880e+01 -8.3920721867505094e+01  8.0505998341322410e+01 -2.7630641468658702e+01 -8.5023885609731252e+01  8.0654074631442910e+01 -2.6656845311434559e+01 -8.2457223995089137e+01  8.3433658377976769e+01 -2.6460998015421385e+01 -8.6731706461221108e+01  8.0540340391878942e+01 -2.4173076677364016e+01 -8.5524590367969225e+01  8.0436960669714097e+01 -2.8797464643280801e+01 -8.3307784733768059e+01  8.3512121114975756e+01 -2.8005654803426662e+01 -8.5846604012404498e+01  8.0545065378160558e+01 -2.9797051977772281e+01 -8.1642528261260352e+01  7.2822495322820743e+01 -2.6115362396252351e+01 -8.4915573085621347e+01  7.6012822799470484e+01 -2.5933660868157755e+01 -8.6701476648349626e+01  7.6135434966541837e+01 -2.7213851888784099e+01 -8.5005139425685570e+01  7.5547843179937658e+01 -2.5369795850594411e+01 -8.2852529180940579e+01  7.4600269467047681e+01 -2.4971784308336236e+01 -8.1630068396775968e+01  7.6113255187067168e+01 -2.5155546792283854e+01 -8.4188054291276330e+01  7.6082510371659168e+01 -2.6420975702790901e+01 -8.2517939975200179e+01  7.8173765056055657e+01 -2.6801521849056829e+01 -8.5796604210619932e+01  7.8132868907292803e+01 -2.5487591621569639e+01 -8.7626110220411434e+01  7.4163943166149679e+01 -2.7785343122343722e+01 -8.2934128104022278e+01  7.6067353732167732e+01 -2.8363628288015107e+01 -8.3199185159110741e+01  7.4928758628148913e+01 -2.6923046890414096e+01 -8.1899373065932551e+01  7.3959711325481592e+01 -2.9251373759400526e+01 -8.2100345268516023e+01  7.4412340526439550e+01 -2.7978603724751668e+01 -8.0465941688331000e+01  7.4123935498955746e+01 -2.5995522281465409e+01 -8.0304313772850605e+01  7.3237118467499229e+01 -3.0410058866774985e+01 -8.0441645071439538e+01  7.6062869910430848e+01 -2.4352241289332660e+01 -8.1795178922178920e+01  7.8224786224472950e+01 -2.4674657688674781e+01 -8.4904023616202480e+01  7.3211261963335403e+01 -2.4439698842404340e+01 -8.0025127385151521e+01  8.0244737268510491e+01 -2.4871326050273868e+01 -8.8552070204262463e+01  7.5947513544667729e+01 -2.8222663643290584e+01 -8.8377062196092297e+01  7.6062363962830617e+01 -2.9419903589978187e+01 -8.6423387972101040e+01  7.8111359041248534e+01 -2.9025103679334070e+01 -8.7308800055464133e+01  7.8149464081212614e+01 -3.0202799175680564e+01 -8.5340347475148164e+01  7.8092793528196367e+01 -3.2479618055034422e+01 -8.6614175469094278e+01  7.8046468249435392e+01 -3.1317740234995867e+01 -8.8724538105131856e+01  7.8038342813887581e+01 -3.0013338973557932e+01 -9.0730508561184436e+01  7.8083243960243806e+01 -2.7704631831914991e+01 -8.9233760608184738e+01  7.5944184710818149e+01 -3.0540155334250475e+01 -8.4473229362525942e+01  7.5947075625632138e+01 -3.1579883281944561e+01 -8.2578110530727741e+01  8.3252265010147056e+01 -3.4777207138884819e+01 -9.6999761040541529e+01  8.3791804594150094e+01 -3.3009568181437572e+01 -9.3947079518036290e+01  8.0280164163736103e+01 -2.9532007687142940e+01 -9.1523640673064207e+01  8.0538097199694235e+01 -3.0880741089928360e+01 -8.9401321036639459e+01  8.0463616805085167e+01 -2.8626319787682618e+01 -8.8088202246010852e+01  8.0202998555153542e+01 -2.7267656147601130e+01 -9.0150862229341072e+01  8.2430766726118236e+01 -3.0521689806376102e+01 -9.2542890251287020e+01  8.0267830491181172e+01 -3.2065975078344664e+01 -9.3148512058390125e+01  8.0391050900094058e+01 -3.3422750015316495e+01 -9.0859452618181777e+01  8.1947285457466052e+01 -2.8404267985157851e+01 -9.2176501544786333e+01  7.8199101836536855e+01 -3.1298854246710057e+01 -8.3602134684637036e+01  8.4443109202358514e+01 -3.2340661924390837e+01 -9.0215190620102888e+01  8.2221817203024628e+01 -3.1510759342303889e+01 -8.8044424468483825e+01  8.2904907759034586e+01 -3.0646804726959257e+01 -8.9422256267020444e+01  8.0482559302847946e+01 -2.9853492773026595e+01 -8.6357940983227891e+01  8.0446207239241986e+01 -3.2087799603021388e+01 -8.7501101111211923e+01  8.0400277235167195e+01 -3.0890471140329144e+01 -8.4666258127079288e+01  8.2248807248497641e+01 -2.8452716928630736e+01 -8.8878391471126960e+01  8.1696465504463731e+01 -2.9307601796421416e+01 -8.7401937981655536e+01  8.0928843425294829e+01 -3.0949476276609666e+01 -8.6481296101140131e+01  7.3328302715631381e+01 -1.8473881476976917e+01 -8.1530807345147778e+01  7.5501329424630711e+01 -1.7760851114595472e+01 -7.9710483530116150e+01  7.6255475870831788e+01 -1.9307667018460048e+01 -8.1651676324447266e+01  7.5637328255739874e+01 -1.9618302467646075e+01 -7.8767450453384740e+01  7.4215246693017036e+01 -1.9342792673868114e+01 -7.5191626291724916e+01  7.6178241476878540e+01 -1.8674504483829647e+01 -7.9298295444617381e+01  7.4160222975499281e+01 -1.8597061264945680e+01 -7.7368190140583906e+01  7.6216306610047340e+01 -1.9833374508202844e+01 -7.7835246895403131e+01  7.8328486840532605e+01 -1.9829214568608947e+01 -8.0675263883407922e+01  7.4704711756609697e+01 -1.7606412634818717e+01 -7.8574215629587471e+01  7.4085786920289138e+01 -2.0374505141053245e+01 -7.9990512133304037e+01  7.3935793009184962e+01 -2.1786201500498670e+01 -7.9193946427607131e+01  7.6223487699523062e+01 -2.0521153549583524e+01 -8.0107749444832805e+01  7.4399315805189673e+01 -2.0480476381530281e+01 -7.7478591570753409e+01  7.6186030665549822e+01 -1.9873729300440598e+01 -8.4222144925604852e+01  7.6179443533040029e+01 -2.1247793042154953e+01 -8.2502477175859340e+01  7.8188703593508350e+01 -2.1319258313412192e+01 -8.5765269795292724e+01  7.8258455785755672e+01 -2.0560718458893973e+01 -8.3217832264587216e+01  7.6227935023462237e+01 -2.1680036694781855e+01 -7.8561383886528830e+01  7.6149295544408218e+01 -2.2501557074499186e+01 -8.0940695021300499e+01  7.8291695819311443e+01 -2.1837397707338187e+01 -8.1548863461686011e+01  7.8252031332888180e+01 -2.2676579012953749e+01 -8.4043718842958455e+01  7.4411833612458210e+01 -2.0754476990348007e+01 -7.5024263402090597e+01  7.3148174177663165e+01 -2.2875302389105446e+01 -7.7666096024652731e+01  7.3813262491603496e+01 -1.6127715471233614e+01 -7.2618602976549894e+01  7.3248084538656343e+01 -1.7187436038023534e+01 -7.6874625907600205e+01  7.6098657193034839e+01 -1.8032371444856611e+01 -7.6978300015924319e+01  7.3259769017697607e+01 -1.7580490311115696e+01 -7.4585181216031188e+01  8.0699617180665115e+01 -2.1944567292395831e+01 -8.4733208553554235e+01  8.0358867981541849e+01 -2.2765377404600859e+01 -8.7552014258338602e+01  7.6163975820936386e+01 -1.8219924350596532e+01 -8.3320964840964976e+01  7.8236038472410215e+01 -1.9426497192069071e+01 -8.5091915827585893e+01  7.8327246039079029e+01 -1.8807307171109201e+01 -8.2480463726915403e+01  7.8262724459479870e+01 -1.7670930010582300e+01 -8.4285946753806897e+01  7.6230559971434317e+01 -1.7584592868452265e+01 -8.0947598730961374e+01  7.6137926741464227e+01 -1.6516249429271028e+01 -7.6328532320352636e+01  7.6151658054430854e+01 -1.7006126702936459e+01 -7.8717875371464757e+01  7.8356934161546249e+01 -1.7091583232787375e+01 -8.1700280547307827e+01  7.8396063713449180e+01 -1.8127728386484936e+01 -7.9986316873441012e+01  7.8364835894305585e+01 -1.6509837783144715e+01 -7.9171681445186550e+01  8.0512952800776560e+01 -2.0908898641642651e+01 -8.6820959174754421e+01  8.4422645287550367e+01 -2.3458763186238244e+01 -8.9209396302856675e+01  8.0518948369653174e+01 -1.8958797445823389e+01 -8.6054357518047141e+01  8.0724226152136012e+01 -1.9990094744177480e+01 -8.3967406745798641e+01  8.3304317943719042e+01 -2.1240830208991230e+01 -8.8197156815559254e+01  8.4274811043846853e+01 -1.6655142445705714e+01 -8.6953980270136555e+01  8.0547136892087977e+01 -1.7093943833991776e+01 -8.5277466936114379e+01  8.3583273477791778e+01 -1.9716402095472560e+01 -8.8489853754984466e+01  8.0642656560836997e+01 -1.8325778120658935e+01 -8.3247125467456385e+01  8.0715187861385886e+01 -1.6525295227403134e+01 -8.2274124501388371e+01  7.6243472366735176e+01 -2.2867921418919735e+01 -7.6901599868848180e+01  7.8335025877292750e+01 -2.3156640467999253e+01 -7.9971748426517237e+01  7.8375410127510804e+01 -2.2432920418860775e+01 -7.7622461326806828e+01  7.8366680526653255e+01 -2.1187974338283119e+01 -7.9177163567538699e+01  7.6235073939446579e+01 -2.1028637838999355e+01 -7.6312573923049456e+01  7.6240468650369820e+01 -1.7440173165710540e+01 -7.4811159197151540e+01  7.6231362208775025e+01 -1.9239769877956810e+01 -7.5645474346175234e+01  7.8432982289179037e+01 -2.0535420611073832e+01 -7.6856332011605801e+01  7.8407392654741543e+01 -1.9261798008825483e+01 -7.8350142438682511e+01  7.8402635731973476e+01 -1.8695521230182486e+01 -7.6024563860480839e+01  8.4151470883684141e+01 -2.3357174772581633e+01 -8.5374359914320578e+01  8.0732371204677662e+01 -2.3311772551191641e+01 -8.2980514211572640e+01  8.0777050725353874e+01 -2.1294456873713361e+01 -8.2235260203561396e+01  8.0781392759480866e+01 -2.2633931516633073e+01 -8.0638922740886784e+01  8.2588983666826152e+01 -2.2702108490315879e+01 -8.3173570726130094e+01  8.4094271281335196e+01 -2.1236835457102408e+01 -7.8421357219381036e+01  8.2225665441220329e+01 -2.2350304821938749e+01 -8.2186621000651982e+01  8.0642638435863802e+01 -2.0661565211301756e+01 -7.9801614801132374e+01  8.0679176303580888e+01 -2.1886135237463325e+01 -7.8259275434847822e+01  8.0694170753973310e+01 -2.0078395408751064e+01 -7.7366405806447730e+01  7.8402320365212788e+01 -1.7643677523184390e+01 -7.7643758667029971e+01  8.3737679987408924e+01 -2.1703733399231986e+01 -8.4131551303753824e+01  8.0800538585890109e+01 -1.9470738553097458e+01 -8.1496515850248727e+01  8.2583608228818392e+01 -2.0607216579460175e+01 -8.3010857051331456e+01  8.3437112503126372e+01 -1.8449022427484820e+01 -8.2329441058857000e+01  8.3335018721793361e+01 -1.9797431977886863e+01 -8.4852919402528855e+01  8.4528837982105344e+01 -1.7294882483171687e+01 -8.4099379616240668e+01  8.0699090448186823e+01 -1.7765040177262833e+01 -8.0634958932750109e+01  8.0729615112854603e+01 -1.8925306285381772e+01 -7.9031144513621655e+01  8.3219220773656360e+01 -1.9892533599371916e+01 -8.1373830773258874e+01  7.3951203291334878e+01 -8.5227605735909311e+00 -6.2132659925774433e+01  7.8422541016477950e+01 -9.2904567325929452e+00 -5.9959614569428986e+01  7.4555903054749336e+01 -9.3457872678152842e+00 -5.7019955661853736e+01  7.4735578184205323e+01 -7.6032954792097112e+00 -5.9225264198941552e+01  7.4148183476163979e+01 -1.0792241501865432e+01 -6.0007069106159037e+01  7.8415053667613350e+01 -1.0198358798910288e+01 -6.3882985974854279e+01  7.3892119625899724e+01 -1.2153466041889597e+01 -5.7606067419447960e+01  7.8435797485925974e+01 -1.2161711662411506e+01 -6.1357549974597134e+01  8.3525263602566653e+01 -1.1987090824637253e+01 -6.5492143723466143e+01  7.3889254233909824e+01 -8.4513135931294556e+00 -4.4985803505905842e+01  7.8367737114244051e+01 -7.4249499690608234e+00 -4.3930770621804164e+01  7.8401934185069166e+01 -6.1953541990698229e+00 -4.5811062989323517e+01  7.8405189745846812e+01 -8.2888599884377587e+00 -4.7153718174336788e+01  7.4502397247672064e+01 -6.3997100434815568e+00 -4.4226714767772087e+01  7.4720219794284375e+01 -7.5571513858940484e+00 -4.2602369634985727e+01  7.3974001140253648e+01 -6.3863070885368112e+00 -4.0993272496890889e+01  7.3886966576782967e+01 -6.9699553906824843e+00 -3.9309153707157598e+01  8.3357127978005749e+01 -7.9413189364453567e+00 -4.9249639059794411e+01  7.3907623483198705e+01 -2.6759466010391262e+00 -5.1927063728631119e+01  7.8395107275353709e+01 -3.7115443314029513e+00 -5.2779163468078977e+01  7.4794341761355483e+01 -2.1393567846142241e+00 -4.9318869849215872e+01  7.3974634051771545e+01 -4.7584589679329952e+00 -5.0331218236992129e+01  7.2808762582010701e+01 -1.3186339048275805e+01 -8.7917391012297344e+01  7.6095789228970858e+01 -1.4078172815008525e+01 -8.8789261509790762e+01  7.6013845986399190e+01 -1.2670384134387408e+01 -8.9652031320275171e+01  7.5918533380312283e+01 -1.4608373938561256e+01 -9.1663631661650413e+01  7.8052742668076831e+01 -1.6027160771677256e+01 -9.4291456780162022e+01  7.8081284177818176e+01 -1.5459508052593936e+01 -9.1419583854347465e+01  7.8085695613017634e+01 -1.3947509574469688e+01 -9.2435614252086339e+01  7.8139676780295289e+01 -1.1985886126965314e+01 -9.0470833711614787e+01  7.8169765431412984e+01 -1.3463709132617964e+01 -8.9529658310386452e+01  7.8180147510912249e+01 -1.4877201697637153e+01 -8.8595856624364416e+01  7.5593889038936695e+01 -1.2711561581242753e+01 -8.5740692836380319e+01  7.4611532890254466e+01 -1.2490949330568423e+01 -8.4486442917276307e+01  7.6085810444140492e+01 -1.3606337421072165e+01 -8.6225260867938275e+01  7.6111115156323379e+01 -1.2252823463359757e+01 -8.7070128228745560e+01  7.3290944150711610e+01 -1.1543811403960566e+01 -7.8156829302349863e+01  7.6145492640522264e+01 -1.1474670979216542e+01 -8.1997134254910279e+01  7.6067604931806628e+01 -1.3191936829776111e+01 -8.3684804929067894e+01  7.6055245910480849e+01 -1.1791116976385192e+01 -8.4567349344611756e+01  7.8249669153283961e+01 -1.2939683037494650e+01 -8.6809892165075880e+01  7.8225309392312482e+01 -1.1570007359616950e+01 -8.7665437750199573e+01  7.8244305441020799e+01 -1.1178562507334169e+01 -8.4962723575436982e+01  7.3204709270076336e+01 -1.2214832369640238e+01 -8.2881132891034454e+01  8.3319200168993049e+01 -1.9577225185840661e+01 -1.0126616445976816e+02  8.3780873508476049e+01 -1.8314488289784737e+01 -9.7964125850561629e+01  8.0537829632878470e+01 -1.6903631041914259e+01 -9.3905240887198815e+01  8.0280934659322497e+01 -1.5302713812054892e+01 -9.4995527414374806e+01  8.0208855909487127e+01 -1.3293878911632092e+01 -9.3256089680876741e+01  8.0441499824118949e+01 -1.4822562240030004e+01 -9.2029380303841577e+01  8.2442761361065863e+01 -1.5975034834984370e+01 -9.6050120156633554e+01  8.0231441310282534e+01 -1.7569913052665367e+01 -9.6957369887963480e+01  8.3736678152828091e+01 -1.0576719912890315e+01 -9.3462509092103716e+01  8.1878765597716765e+01 -1.4028770050298467e+01 -9.5449231260775520e+01  8.0388145467284829e+01 -1.2866678713167328e+01 -9.0382378191388440e+01  8.0231777377163397e+01 -1.1128442223738590e+01 -9.1289118357543487e+01  8.0535027291238166e+01 -1.0873861250940420e+01 -8.8205178556343029e+01  7.8430092408495426e+01 -8.