<?xml version="1.0"?>
<VTKFile type="UnstructuredGrid"  version="0.1"  >
<UnstructuredGrid>
<Piece  NumberOfPoints="4369" NumberOfCells="20172">
<Points>
<DataArray  type="Float64"  NumberOfComponents="3"  format="ascii">-50.558795 4.0246905 -19.63952  -50.32491025 4.55702625 -20.083621  -50.66004700000001 5.022505 -19.35837675  -51.15851675 4.7932565 -20.1155075  -50.0910255 5.089362 -20.527722  -48.891582 3.55223 -19.575747  -49.49130375 4.320796000000001 -20.0517345  -49.7251885 3.78846025 -19.6076335  -49.8264405 4.78627475 -19.32649025  -45.989047 0.751562 -19.60721  -46.24998650000001 0.5668839999999999 -20.76761625  -45.47959425 0.7944107499999999 -20.691496  -46.5048285 0.96352225 -20.20916025  -45.734205 0.35492375 -20.165666  -45.479363 -0.04171450000000004 -20.724122  -45.99537575 1.006371 -21.29344625  -45.22475224999999 0.3977725 -21.249952  -47.02061 1.1754825 -20.8111105  -44.9701415 0.8372595 -21.775782  -45.73443625 1.191049 -20.13304  -45.4798255 1.630536 -20.65887  -45.2249835 1.23389775 -21.217326  -46.25021775 1.40300925 -20.73499025  -46.50459725 0.127397 -20.24178625  -46.24975525 -0.26924125 -20.80024225  -47.02037875000001 0.33935725 -20.8437365  -47.0201475 -0.496768 -20.8763625  -46.75943925 0.52403525 -19.68333025  -47.5298315 0.2965085 -19.7594505  -47.2749895 -0.10012975 -20.3179065  -47.27522075 0.7359955 -20.2852805  -49.070616 -0.158545 -19.911691  -48.04538175 -0.3276565 -20.39402675  -48.045613 0.50846875 -20.36140075  -48.30022375 0.06898174999999998 -19.83557075  -44.970604 2.50951 -21.71053  -44.97037275 1.67338475 -21.743156  -45.99560700000001 1.84249625 -21.26082025  -45.22521475000001 2.070023 -21.1847  -44.969679 -0.834991 -21.841034  -44.96991025 0.001134250000000003 -21.808408  -45.9951445 0.17024575 -21.32607225  -45.224521 -0.4383527500000001 -21.282578  -45.99491325 -0.6658795 -21.35869825  -52.226008 4.497151 -19.703293  -51.1584975 3.974279 -20.30250075  -51.39240150000001 3.51420725 -19.7839555  -51.39240150000001 4.26092075 -19.6714065  -50.324891 3.73804875 -20.27061425  -50.558795 3.277977 -19.752069  -50.558795 2.5312635 -19.864618  -50.324891 2.99133525 -20.38316325  -50.090987 3.451407 -20.9017085  -51.992104 4.210509249999999 -20.33438725  -51.7582 3.9238675 -20.9654815  -50.9245935 3.68763725 -20.933595  -51.1584975 3.2275655 -20.41504975  -52.226008 3.7504375 -19.815842  -52.226008 3.003724 -19.928391  -51.39240150000001 2.76749375 -19.8965045  -51.992104 3.46379575 -20.44693625  -52.226008 1.510297 -20.153489  -51.39240150000001 2.02078025 -20.0090535  -51.992104 1.97036875 -20.67203425  -52.226008 2.2570105 -20.04094  -51.1584975 2.480852 -20.52759875  -51.992104 2.71708225 -20.55948525  -51.7582 2.4304405 -21.1905795  -51.290392 3.350584 -22.22767  -50.6906895 3.4009955 -21.56468925  -50.9245935 2.94092375 -21.046144  -51.524296 3.63722575 -21.59657575  -51.524296 2.89051225 -21.70912475  -51.7582 3.177154 -21.0780305  -49.4912845 3.5018185 -20.23872775  -49.7251885 3.04174675 -19.7201825  -48.906338 4.070127 -26.974139  -47.243809 2.827321 -26.961246  -47.62586949999999 3.28532675 -26.26205375  -48.904435 3.0533655 -27.05388525  -48.902532 2.036604 -27.1336315  -47.241906 1.8105595 -27.04099225  -47.62396649999999 2.26856525 -26.3418  -46.345401 2.5005265 -25.5499685  -45.9633405 2.04252075 -26.24916075  -45.58128 1.584515 -26.948353  -48.5242775 3.61212125 -27.67333125  -48.5223745 2.59535975 -27.7530775  -48.142217 3.1541155 -28.3725235  -46.8617485 2.36931525 -27.66043825  -48.898726 0.003081 -27.293124  -47.240003 0.7937979999999999 -27.1207385  -47.6201605 0.23504225 -26.5012925  -47.6220635 1.25180375 -26.42154625  -46.343498 1.483765 -25.62971475  -46.341595 0.4670035 -25.709461  -45.9614375 1.02575925 -26.328907  -48.5185685 0.5618367499999999 -27.91257  -48.900629 1.0198425 -27.21337775  -48.5204715 1.57859825 -27.83282375  -48.138411 1.1205925 -28.532016  -46.85984550000001 1.35255375 -27.7401845  -47.378096 2.238104 -29.770908  -46.479688 1.9113095 -28.3596305  -47.7582535 1.67934825 -29.151462  -48.140314 2.137354 -28.45226975  -47.7601565 2.69610975 -29.07171575  -43.784464 0.930926 -24.125798  -44.682872 1.2577205 -25.5370755  -45.0630295 0.69896475 -24.9176295  -45.0649325 1.71572625 -24.83788325  -50.202917 1.853282 -24.743333  -49.87686925 1.39073175 -25.38078075  -48.274159 2.17690425 -25.14665075  -49.5527245 1.944943 -25.93848225  -47.94811125 1.714354 -25.7840985  -49.22667675 1.48239275 -26.57593  -49.5508215 0.9281815 -26.0182285  -48.59830375 1.622693 -24.58894925  -46.66954575 1.94631525 -24.992267  -48.272256 1.16014275 -25.226397  -46.9936905 1.392104 -24.4345655  -49.87877225 2.40749325 -25.3010345  -47.95001425 2.7311155 -25.70435225  -49.22857974999999 2.49915425 -26.49618375  -49.5546275 2.9617045 -25.858736  -49.23048274999999 3.51591575 -26.4164375  -47.94620825 0.6975924999999999 -25.86384475  -46.66764275 0.92955375 -25.07201325  -49.22477375 0.46563125 -26.65567625  -45.38907725 1.161515 -24.28018175  -47.27173175 3.8172615 -26.82418325  -47.621397 4.2052695 -26.16371325  -46.336456 4.340412000000001 -25.3532875  -45.98679075 3.952404 -26.0137575  -46.3409285 3.42046925 -25.451628  -45.99126325 3.03246125 -26.112098  -45.6371255 3.564396 -26.6742275  -43.775519 2.7708115 -23.929117  -44.70632225 3.16760375 -25.30167225  -45.06046 2.635669 -24.73954275  -45.0559875 3.55561175 -24.64120225  -43.43032625 1.46286075 -24.6879275  -43.7799915 1.85086875 -24.0274575  -44.71079475 2.247661 -25.40001275  -43.42585375 2.3828035 -24.589587  -43.0761885 1.9947955 -25.250057  -44.356657 2.77959575 -25.96214225  -47.578888 4.0198115 -22.9658555  -47.27788049999999 4.54510825 -23.471332  -47.57881325 4.841114750000001 -22.8066005  -48.88303 4.77496225 -23.59351825  -46.976873 5.070405 -23.9768085  -45.97366375 4.61126075 -22.68441425  -46.2745965 4.90726725 -22.01968275  -46.274746 3.26466075 -22.33819275  -44.6695965 3.03480675 -22.2160065  -44.97052925 3.33081325 -21.551275  -45.672731 4.315254250000001 -23.34914575  -46.957672 4.18011175 -24.1595715  -48.5628215 4.40996575 -24.28175775  -45.9545375 2.89966425 -23.02643225  -47.2586795 3.654815 -23.654095  -45.9737385 3.7899575 -22.84366925  -51.99277425 1.132865 -20.73328275  -52.226008 0.7551494999999999 -20.15348925  -51.43716000000001 1.0930865 -20.0930395  -50.648312 0.675876 -20.03259  -51.20392625 0.7156545000000001 -20.67283325  -51.43716000000001 0.337939 -20.09303975  -52.226008 1.999999999946489e-06 -20.1534895  -51.99277425 0.3777175 -20.733283  -51.7595405 0.755433 -21.3130765  -52.226008 -1.510293 -20.15349  -51.99277425 -1.1325775 -20.7332835  -51.43716000000001 -1.172356 -20.09304025  -51.43716000000001 -0.4172085 -20.09304  -51.20392625 -0.039493 -20.6728335  -50.648312 -0.07927149999999999 -20.03259025  -50.648312 -0.834419 -20.0325905  -51.20392625 -0.7946405000000001 -20.67283375  -51.7595405 -0.754862 -21.313077  -52.226008 -0.7551455 -20.15348975  -51.99277425 -0.37743 -20.73328325  -51.293073 0.000569 -22.472664  -50.73745875 -0.0392095 -21.83242075  -50.9706925 -0.416925 -21.25262725  -50.9706925 0.3382225 -21.252627  -50.41507825 0.298444 -20.61238375  -50.41507825 -0.4567035 -20.612384  -50.1818445 -0.078988 -21.1921775  -51.52630675 -0.3771465 -21.8928705  -51.7595405 0.0002854999999999732 -21.31307675  -51.52630675 0.378001 -21.89287025  -49.62623025 -0.1187665 -20.55193425  -49.859464 -0.496482 -19.97214075  -49.859464 0.2586655 -19.9721405  -46.46007 1.891216 -20.12517425  -46.20545925 2.330703 -20.65100425  -46.9758515 2.10317625 -20.7271245  -46.931093 3.03087 -20.6431385  -46.71468075 1.451729 -19.59934425  -47.4403145 2.151896 -19.5914785  -47.18570375 2.591383 -20.1173085  -47.23046225 1.66368925 -20.2012945  -47.485073 1.22420225 -19.6754645  -47.9113375 3.29155 -20.10944275  -47.956096 2.36385625 -20.19342875  -48.16594825 2.852063 -19.58361275  -48.9363405 2.62453625 -19.659733  -48.0008545 1.4361625 -20.27741475  -48.21070675 1.92436925 -19.66759875  -48.981099 1.6968425 -19.743719  -49.0258575 0.76914875 -19.827705  -48.25546525 0.9966755000000002 -19.75158475  -45.95084850000001 2.77019 -21.17683425  -51.203256 1.55315825 -20.61158475  -50.6035535 1.60356975 -19.948604  -50.414408 1.13594775 -20.55113525  -50.180504 1.5960195 -21.0696805  -50.3696495 2.0636415 -20.46714925  -50.969352 2.01323 -21.13013  -50.735448 2.47330175 -21.64867525  -50.1357455 2.52371325 -20.9856945  -49.536043 2.57412475 -20.32271375  -49.5808015 1.646431 -20.40669975  -49.769947 2.114053 -19.8041685  -49.8147055 1.18635925 -19.8881545  -49.62556 0.71873725 -20.49068575  -50.20118675 0.9253335 -24.746744  -48.8946075 1.18121375 -24.01775825  -48.56855975 0.7186635 -24.655206  -46.9342025 -0.415955 -24.567079  -48.5668295 -0.209285 -24.658617  -47.26025025 0.04659525 -23.92963125  -47.586298 0.5091455 -23.2921835  -48.89287725 0.2532652500000001 -24.02116925  -50.1994565 -0.002614999999999923 -24.750155  -48.242512 0.25611325 -25.29265375  -49.875139 0.46278325 -25.38419175  -50.195996 -1.858512 -24.756977  -48.88941675 -1.60263175 -24.02799125  -48.891147 -0.67468325 -24.02458025  -48.56509925 -1.1372335 -24.662028  -47.58456775 -0.4188029999999999 -23.2955945  -47.25852 -0.88135325 -23.93304225  -47.5828375 -1.3467515 -23.2990055  -50.19772625 -0.9305634999999999 -24.753566  -49.8716785 -1.39311375 -25.39101375  -48.24078175 -0.67183525 -25.29606475  -49.547361 -0.9277155 -26.0250505  -49.87340875 -0.46516525 -25.38760275  -49.54909125 0.0002330000000000385 -26.0216395  -49.2230435 -0.46231725 -26.65908725  -47.91646425 -0.206437 -25.9301015  -46.27625825 -1.09087125 -22.57001975  -46.2779885 -0.16292275 -22.56660875  -45.95194075 -0.6254730000000001 -23.2040565  -50.69070875 4.219973 -21.377696  -50.4148845 3.94587775 -22.063067  -50.09100625 4.2703845 -20.71471525  -49.815182 3.99628925 -21.40008625  -49.539377 4.5411715 -21.898464  -49.81520125 4.81526675 -21.213093  -51.29041125 4.1695615 -22.04067675  -51.014587 3.89546625 -22.72604775  -50.738782 4.440
[...]
<PointData  Vectors="u"> 
<DataArray  type="Float64"  Name="u"  NumberOfComponents="3" format="ascii">7.8900154945742287e+01 4.0229513171911464e+01 -1.8910313523289287e+02  7.8166435171555847e+01 4.1869833701212137e+01 -1.8201849486175246e+02  7.8413593138147817e+01 4.8940670108969279e+01 -1.8597312965008277e+02  7.7716244534320168e+01 4.4062994295099585e+01 -1.8147114749000903e+02  7.7543848010348569e+01 4.3791650536443527e+01 -1.7571293116204188e+02  8.0021113518266532e+01 3.4460295619745381e+01 -1.9028024319313786e+02  7.8865857486171706e+01 3.9712787500604399e+01 -1.8251307405117470e+02  7.9669393338443555e+01 3.7972665790464632e+01 -1.8978535019222369e+02  7.8934173093777815e+01 4.6963120288593707e+01 -1.8624786056279157e+02  8.6461082696944217e+01 6.8559874477186291e+00 -1.9241290020756711e+02  8.3089634335118632e+01 4.8610266058254163e+00 -1.8067809779797531e+02  8.4409776014251349e+01 6.6528666382620294e+00 -1.7881858638556841e+02  8.3765724776784339e+01 8.6620938373142540e+00 -1.8686674953997434e+02  8.4864611233366517e+01 5.3483435541271795e+00 -1.8561862644160274e+02  8.2517750389951857e+01 1.4065091559132723e+00 -1.8033556163656615e+02  8.2317676255737240e+01 8.0456320640080321e+00 -1.7556174567181532e+02  8.2203166426336111e+01 3.8020249322158790e+00 -1.7534034961269978e+02  8.1782798498678090e+01 1.0117759218731054e+01 -1.8101171781735147e+02  8.3342078469016059e+01 6.5107805038707642e+00 -1.7106124856588795e+02  8.4730196435106890e+01 8.8103344777013870e+00 -1.8586065675250941e+02  8.2392465623977401e+01 1.2330236990881358e+01 -1.8019193284260805e+02  8.2265303115848170e+01 9.5750335335116397e+00 -1.7521297829418123e+02  8.2865278689887191e+01 1.1744029366837371e+01 -1.8053527593266770e+02  8.3073410353011695e+01 1.0435067303035408e+00 -1.8632695290870925e+02  8.2294706111575437e+01 -2.0978230077810536e+00 -1.8063175654798260e+02  8.1819660056217572e+01 2.8006698269248256e+00 -1.8101223336131446e+02  8.1759178282078850e+01 -4.2999762863150703e+00 -1.8067105997582087e+02  8.4159525265724923e+01 3.6238511201832018e+00 -1.9355042951573668e+02  8.2942468405865867e+01 1.5415300880587668e+00 -1.9339661440108446e+02  8.2299393005880347e+01 -1.2329249378111533e+00 -1.8646738174095734e+02  8.2378794063604673e+01 6.3985174516541914e+00 -1.8747548357920618e+02  8.0028588179678735e+01 -1.2882224280173948e+00 -1.9317989287332662e+02  8.1298950434691093e+01 -3.1903936303941856e+00 -1.8662248395569205e+02  8.1255261672758124e+01 4.4735265477300512e+00 -1.8764658033400605e+02  8.1945605523257314e+01 -6.5490836322810664e-01 -1.9357052095721858e+02  8.4169037951983597e+01 1.9814622768193900e+01 -1.7120025571881118e+02  8.3670253602366969e+01 1.3081477904032791e+01 -1.7149064996138043e+02  8.1739624901190297e+01 1.4757788379546184e+01 -1.7515838463057159e+02  8.0236837898021875e+01 1.5602469439701158e+01 -1.7743570770683019e+02  8.4307765528121593e+01 -6.4496477362340823e+00 -1.7219622442770148e+02  8.3642544332399510e+01 -1.9552373198685420e-02 -1.7196608876133621e+02  8.1968436971119971e+01 1.6657383525806786e+00 -1.7556732475027684e+02  8.0652965439916500e+01 -1.7951340263743021e+00 -1.7777312391982545e+02  8.1354361367376114e+01 -5.4351941445646235e+00 -1.7560079330608147e+02  7.8860301119682561e+01 4.4304883460511483e+01 -1.8778509681690323e+02  7.7393221596019089e+01 3.6314123881808051e+01 -1.8427869664304885e+02  7.7742212094886114e+01 3.3947670855836115e+01 -1.9172660320039816e+02  7.8492503396894421e+01 4.2546865120523265e+01 -1.8874804546705653e+02  7.8231320317251758e+01 3.4302954119391806e+01 -1.8427652653842003e+02  7.8760010465896968e+01 3.1617604391172414e+01 -1.9188729644489894e+02  7.9313290710180809e+01 2.3385867023676358e+01 -1.9158340782619558e+02  7.8370298834897469e+01 2.6989801250081644e+01 -1.8531060935029549e+02  7.7678090633204704e+01 2.9468990144604646e+01 -1.7857092874065250e+02  7.7663995952415164e+01 3.6921562491253830e+01 -1.8415955155181305e+02  7.5381307806967286e+01 3.2245840985372134e+01 -1.7958273819795659e+02  7.6348017266039790e+01 3.1326164598083590e+01 -1.7883409141277227e+02  7.7025537662037166e+01 2.9375592984305882e+01 -1.8585087368996230e+02  7.7639121449559326e+01 3.5758018174441062e+01 -1.9188130740093806e+02  7.7649913720627794e+01 2.9207045310667091e+01 -1.9298919308623127e+02  7.8024037253886490e+01 2.6744159515303824e+01 -1.9275084809948802e+02  7.6276998499157813e+01 3.1478880667974533e+01 -1.8674090253900295e+02  7.9581669615724977e+01 1.4835837486158894e+01 -1.9218581855955247e+02  7.8834519358874175e+01 1.8946181973785556e+01 -1.9204454228303450e+02  7.7723322318703254e+01 1.9736418068714634e+01 -1.8667926795794895e+02  7.7565009497843420e+01 2.2663840658695310e+01 -1.9440783769558706e+02  7.7488788254299180e+01 2.2591197493324241e+01 -1.8633144147920058e+02  7.6100422355364699e+01 2.5346698489700987e+01 -1.8790544187524583e+02  7.5503282943385287e+01 2.2583562019651367e+01 -1.8104092822956093e+02  7.4094576575205096e+01 2.4953168951295009e+01 -1.6573277410701618e+02  7.5631752155957983e+01 2.7404496018502613e+01 -1.7318611814900945e+02  7.6158492155710903e+01 2.5352195747932750e+01 -1.7995679394691413e+02  7.2418387893549195e+01 2.8021005222224154e+01 -1.7398261156587029e+02  7.2412677316705455e+01 2.4988805671172184e+01 -1.7435296594575379e+02  7.3286461474833700e+01 2.7484317841028762e+01 -1.8250995396265373e+02  7.9114414108846319e+01 3.1782017765711164e+01 -1.8442436353381936e+02  7.9886183681514680e+01 2.8233142147955821e+01 -1.9101900179582302e+02  7.3774331221612229e+01 1.9485286761886108e+01 -1.2965720613178109e+02  7.6616511571714483e+01 1.3779774205628168e+01 -1.3223203857517635e+02  7.6516323241013183e+01 1.6918365524406660e+01 -1.3611995153177881e+02  7.4156228016472028e+01 1.4851426622048225e+01 -1.3181613091431322e+02  7.4589147211659181e+01 9.9780189023600681e+00 -1.3300073463907520e+02  7.6497735743858684e+01 8.9328175830444270e+00 -1.3270458540182662e+02  7.6621005496130508e+01 1.1764798373608745e+01 -1.3686845660214496e+02  7.8742735742598427e+01 1.3741365011123236e+01 -1.4076773127859261e+02  7.8730377092445465e+01 1.0609554085621342e+01 -1.3642987432680826e+02  7.8693382550435885e+01 7.7595616075748328e+00 -1.3209416582422710e+02  7.5824064830971579e+01 1.5166846423069359e+01 -1.2693513247059597e+02  7.4794522052808233e+01 1.1724905574740715e+01 -1.2950228274482942e+02  7.4671687993702335e+01 1.2607624197022943e+01 -1.2495479543013109e+02  7.6385210442973928e+01 1.1004591227832861e+01 -1.2839289394893157e+02  7.3744612222695125e+01 -5.8513972980998925e-02 -1.3105039537336023e+02  7.6694829814160229e+01 3.9385087965270826e+00 -1.3266167115925316e+02  7.6521776742412285e+01 1.2101226729888732e+00 -1.3701830076109863e+02  7.6602424575789485e+01 6.4964741559494783e+00 -1.3712956706443470e+02  7.8710120210724952e+01 8.1503820700123857e+00 -1.4119873921553133e+02  7.8717029868373970e+01 2.5397549839775069e+00 -1.4111250315806484e+02  7.8682132355187434e+01 5.3584928015455713e+00 -1.3661090712073579e+02  7.5763453938435688e+01 4.3203956568751343e+00 -1.2753700605947022e+02  7.4185610865982838e+01 4.9505050237208019e+00 -1.3250324122336747e+02  7.4809844282820848e+01 7.7970168236499822e+00 -1.2970557660563236e+02  7.4573885137911503e+01 6.3852108267053636e+00 -1.2537309638381191e+02  7.6507481972567803e+01 6.2053300938107068e+00 -1.2855664733676139e+02  7.3710412593558814e+01 8.5978625571538299e+00 -1.1549201211205909e+02  7.6206746978415993e+01 8.4529098064578285e+00 -1.2445226132281906e+02  7.2582629247526555e+01 8.5639375181202073e+00 -1.2131297179524105e+02  7.2905263679304710e+01 9.5224575788747838e+00 -1.2750151023100616e+02  7.2826687388752489e+01 9.9520737902240448e+00 -1.2135942684729611e+02  8.4270379264859216e+01 5.8949965299087177e+00 -1.5210298970398151e+02  8.1231213291848192e+01 6.8585913362315400e+00 -1.4056948678721082e+02  8.1001530373165082e+01 4.0459721344051749e+00 -1.4547144601201339e+02  8.1020891396507352e+01 1.0113537954896609e+01 -1.4561712566849303e+02  7.3907530896040825e+01 1.1052515886444732e+01 -1.4806598832220004e+02  7.5946955538618440e+01 6.6173857726547514e+00 -1.4451464801298832e+02  7.6868875730930952e+01 1.2642215812246269e+01 -1.4524992639612100e+02  7.7295577696971662e+01 1.0544686882908550e+01 -1.4138902454094796e+02  7.6734627395974911e+01 9.4069477266368082e+00 -1.4113012286561812e+02  7.4808564131015231e+01 7.3074547084348600e+00 -1.3767844289864701e+02  7.4698446865049405e+01 3.8814419546631376e+00 -1.4174203601346213e+02  7.6870355042965173e+01 9.9759060907656014e+00 -1.4998493598007519e+02  7.8768366899895923e+01 1.1283391587300512e+01 -1.4544592014336072e+02  7.6752191968979204e+01 6.6076240488410596e+00 -1.4548909914508673e+02  7.8816032926076019e+01 8.5221412424198721e+00 -1.5011246872732499e+02  7.5908702962236575e+01 1.5378265146629797e+01 -1.4369631442447471e+02  7.6611388215123441e+01 1.4943464895727034e+01 -1.4060442473491221e+02  7.4749632651890138e+01 1.3315917748450641e+01 -1.3719112689442403e+02  7.4605722454475284e+01 1.7498610354816769e+01 -1.4073305079509524e+02  7.2648068301139432e+01 1.9569770489436571e+01 -1.3588605545261331e+02  7.6539303077451052e+01 3.7964194389994144e+00 -1.4131919637350913e+02  7.8822516074378044e+01 5.3807294701448765e+00 -1.4558736728403275e+02  7.2893150267970441e+01 1.1870354443579885e+00 -1.3738637004206834e+02  8.0849134971529693e+01 7.0297309562694288e+00 -1.5034151866301690e+02  7.6757627675171719e+01 1.8784235439023369e+01 -1.3154953605023718e+02  7.6521108972488832e+01 2.1733954683633456e+01 -1.3530117871203961e+02  7.8709927168235211e+01 2.3778224063353598e+01 -1.3905985463888686e+02  7.8692448677190981e+01 2.0566894034114675e+01 -1.3536823781375111e+02  7.8773612955652084e+01 1.8831387707683270e+01 -1.4008779393273710e+02  7.8764005144432161e+01 1.5824039050071578e+01 -1.3616597247920677e+02  7.8682792570806001e+01 1.7565099610287735e+01 -1.3166798997927484e+02  8.3427982815839542e+01 1.7263894742534898e+01 -1.4984003575006423e+02  8.0920301930823669e+01 1.7495940003106494e+01 -1.4027603673906233e+02  8.0992824092118425e+01 1.5428944074411074e+01 -1.4510584094449388e+02  8.0960445067638261e+01 2.0745655265053710e+01 -1.4435151434719990e+02  8.5252836785880064e+01 6.8052436165287311e+00 -1.4530667348310982e+02  8.3805248904596752e+01 1.1706475771690920e+01 -1.5119967816986630e+02  8.0993409979525396e+01 1.2394598040573264e+01 -1.4084943612042349e+02  8.3137626258041990e+01 1.3557476631396819e+01 -1.4463638749999620e+02  8.3143793096232102e+01 9.5774043569675058e+00 -1.4036694858641539e+02  8.0702383002168958e+01 1.4475121876500912e+01 -1.3622314551756065e+02  7.8937028656350464e+01 2.7525752244137792e+01 -1.5739525669124168e+02  7.8907053751379351e+01 2.9449529264770852e+01 -1.5209663192457646e+02  7.8930082771973574e+01 3.3137966968808627e+01 -1.5625495588213340e+02  7.6670695203553734e+01 3.0688844929110342e+01 -1.5176216450715273e+02  7.8791885745113646e+01 3.1022501998708066e+01 -1.4686224884247736e+02  8.1034451523140746e+01 3.1797451680247313e+01 -1.5679109658861913e+02  8.1092468743527604e+01 3.5824951630313564e+01 -1.6108179545617142e+02  8.1108952798430025e+01 2.3742040908873051e+01 -1.6329459678702591e+02  8.5110255383333026e+01 2.0676373430101506e+01 -1.6357790039017203e+02  8.3728147543367172e+01 2.6273760855062989e+01 -1.7000853155595615e+02  8.0820278702319925e+01 2.8055903969757995e+01 -1.5240279073457782e+02  7.8850267202647061e+01 2.5546349212745266e+01 -1.4781126745833109e+02  7.6737909947179702e+01 2.6757412034680087e+01 -1.4769314602693834e+02  8.1265463343276323e+01 1.9878705557441045e+01 -1.5811797427123108e+02  7.8882658003149487e+01 2.3617790742331589e+01 -1.5290870409760092e+02  8.1087457434134507e+01 2.6136225556893944e+01 -1.5780529254898605e+02  7.7877060569745424e+01 8.6206498863677368e+00 -1.8758950346519021e+02  7.7530450114767504e+01 6.8535010901689679e+00 -1.9589472932033837e+02  7.8895745863639760e+01 1.1505645637586424e+01 -1.9296416245755648e+02  7.9338599183885165e+01 7.8057701273374240e+00 -1.9290109560644311e+02  7.7607127290748465e+01 6.7043597277294147e+00 -1.8775708598474282e+02  7.8101356032947436e+01 3.5958029291643272e+00 -1.9470666345402640e+02  7.7784052998470557e+01 1.9150218685073331e-01 -1.9536541733249811e+02  7.6330667021932854e+01 3.1416889803995902e+00 -1.8966707522597494e+02  7.5573700597106850e+01 4.9601584909083600e+00 -1.8248644749064496e+02  7.9424685429595073e+01 -1.4426527820494169e+01 -1.9272556044142036e+02  7.7703731429972592e+01 -8.4761997525610866e+00 -1.8797541081033319e+02  7.8986397948897448e+01 -1.2045851266395614e+01 -1.9306127544490064e+02  7.7850171836068242e+01 -3.8149209845451999e+00 -1.9484459032144491e+02  7.7005060270416323e+01 -1.9452555814003195e-01 -1.8851601832144576e+02  7.8988717456111971e+01 -5.0155192848952523e-01 -1.9446427985077395e+02  7.9208251330301721e+01 -8.9489312988401277e+00 -1.9308371482015130e+02  7.7696890457597945e+01 -6.9097814041795367e+00 -1.8782573563971908e+02  7.5488323952227546e+01 -4.7666674217092924e+00 -1.8269742913380475e+02  7.7715101773633890e+01 -6.3927146996582573e+00 -1.9529788375401108e+02  7.6386160999089384e+01 -3.0130092690718295e+00 -1.8960032496025974e+02  7.3958853613980907e+01 2.0050134694308222e-01 -1.6778300087167727e+02  7.5590561829446031e+01 -1.8993319106095574e-01 -1.7555734230693722e+02  7.6435356373577122e+01 -3.3065858491329427e+00 -1.8193530735180238e+02  7.6155242730448307e+01 2.7663063776104715e+00 -1.8192521873666726e+02  7.8415318133318976e+01 3.0146004276352465e+00 -1.8733136961965565e+02  7.8380936804047352e+01 -4.2796139454624447e+00 -1.8753579901695392e+02  7.7683108401154072e+01 -5.1733479086237255e-01 -1.8109356157839562e+02  7.2440496561363858e+01 -1.5458223576925341e+00 -1.7652456124761682e+02  7.3312498123641035e+01 1.8805220279363274e-01 -1.8477117469746540e+02  7.2565621740873979e+01 1.4006552020485057e+00 -1.7624265050182103e+02  7.9196486355120470e+01 -8.9108513084596186e-01 -1.8706677838619467e+02  8.0025192827275689e+01 -5.8009023080080642e+00 -1.9343954474773852e+02  7.9970808054361768e+01 3.8751669916542126e+00 -1.9350775708930757e+02  8.2861378668422233e+01 1.7478008335959483e+01 -1.8588711742318327e+02  8.2025265729678921e+01 2.0315681249869105e+01 -1.7982519173611618e+02  8.1674820992162424e+01 1.8312699559855758e+01 -1.8033203510171438e+02  8.1793817642741843e+01 2.6282176638028417e+01 -1.7899749463352231e+02  8.4223849378205500e+01 1.4949057473335147e+01 -1.9337270470221574e+02  8.3138602322007500e+01 2.1728068200426126e+01 -1.9225215952616742e+02  8.2283611295123862e+01 2.3950010756158498e+01 -1.8537184748865016e+02  8.2414466079134698e+01 1.5453890145904651e+01 -1.8690787418897872e+02  8.2671373444291476e+01 1.2348707475408236e+01 -1.9416942942683150e+02  8.1258122278545898e+01 3.0012368472810074e+01 -1.8450695011910898e+02  8.1293219035074472e+01 2.1900814505675687e+01 -1.8656214801241819e+02  8.1960519355727385e+01 2.8140035660914830e+01 -1.9212239591101451e+02  7.9269982158882726e+01 2.5103352241552791e+01 -1.9184834226826811e+02  8.1088022852250063e+01 1.3458690145157961e+01 -1.8748122186325625e+02  8.0991539561757733e+01 1.8951939404109243e+01 -1.9406010353734720e+02  7.9177208955454006e+01 1.6711772264426873e+01 -1.9283319428342796e+02  7.9046021168765833e+01 8.1384773200779232e+00 -1.9341199027360813e+02  8.0972051865948629e+01 1.0197623287592043e+01 -1.9497215579275647e+02  8.1363630659349411e+01 2.3070881339097710e+01 -1.7437976356523316e+02  7.8094564963708493e+01 1.4259905823601731e+01 -1.8636595931989018e+02  7.8928325557526989e+01 1.5497311398420049e+01 -1.9113278915629351e+02  7.8431627328742536e+01 1.0750742143642702e+01 -1.8665050657639947e+02  7.7803351611927454e+01 1.3806299536585165e+01 -1.8091011666347615e+02  7.8438136537591589e+01 1.8596874223258677e+01 -1.8589843815427110e+02  7.6984601777080044e+01 1.7422000497301489e+01 -1.8083200174786430e+02  7.6012119903983915e+01 2.0099568560234605e+01 -1.7477445904116243e+02  7.7791617129631618e+01 2.1634191100214974e+01 -1.8000568325886050e+02  7.8918499962411843e+01 2.3088240936502704e+01 -1.8528609820712649e+02  7.8847460851512835e+01 1.5148697244534581e+01 -1.8619100065210040e+02  7.9211840974623925e+01 1.9879554664146301e+01 -1.9039083719232545e+02  7.9204893442308688e+01 1.2142962856393607e+01 -1.9122244961637958e+02  7.8917181080430083e+01 7.0435420922093250e+00 -1.8665539575691261e+02  7.4303766790973597e+01 5.5731309487334881e+00 -1.4975550322162582e+02  7.6711870877259230e+01 7.6280847326771042e+00 -1.5484914407737185e+02  7.6779948829883608e+01 4.3379886749890266e+00 -1.5017351178665430e+02  7.8837741541109835e+01 -2.5275371624160936e+00 -1.4961780707876804e+02  7.6664865205017236e+01 -1.2077195895262836e+00 -1.5025361087891827e+02  7.8914015517218090e+01 3.0496258473206150e-01 -1.5474925615285480e+02  7.8985225566740411e+01 3.5017638796351145e+00 -1.5988409716403595e+02  7.6760269753776939e+01 1.5742747312472356e+00 -1.5520615698706476e+02  7.4607168510140028e+01 -2.7753128591874072e-02 -1.5062414665414039e+02  7.6520841259046904e+01 1.5056675236983903e+00 -1.4555647564380234e+02  7.4897004270960593e+01 2.3340542155304829e+00 -1.4666228080533844e+02  7.3833792005052899e+01 -1.1204549346103780e+01 -1.4793604381560385e+02  7.6763307160221274e+01 -1.0256988544190136e+01 -1.5439671269433694e+02  7.6804270814714343e+01 -4.4705966805341886e+00 -1.5515879272495266e+02  7.6859431800243911e+01 -6.8575872313676127e+00 -1.4985634470351127e+02  7.8971390863526310e+01 -2.8384587725641732e+00 -1.5985799827720072e+02  7.8882345260466707e+01 -5.6289080525008668e+00 -1.5449080037994827e+02  7.8959565307071117e+01 -9.2559469075519338e+00 -1.5933233490423066e+02  7.4314097266936884e+01 -5.5825295551551690e+00 -1.4977578515498021e+02  7.5951880319686254e+01 -6.2551692491464710e+00 -1.4428348998213480e+02  7.6635537528111357e+01 -3.9553556374959795e+00 -1.4535237908119169e+02  7.4622308312577985e+01 -3.6788352151711701e+00 -1.4168955827425418e+02  7.4921851880983695e+01 -2.2545809062758995e+00 -1.4655249785641658e+02  7.2983966062944972e+01 -3.9187390161464948e-02 -1.4388019305194030e+02  7.2664085632142346e+01 -8.9128693801875714e-01 -1.3722014294390723e+02  7.6351985463828697e+01 -1.0552064361318305e+00 -1.4090099455494124e+02  8.1142771063830025e+01 -8.0156432247905531e+00 -1.6444439632591872e+02  8.1099047343483761e+01 -1.2567859386387650e+00 -1.6502034766221820e+02  8.1258681242932738e+01 -4.3537644777513433e+00 -1.5926719040715059e+02  7.6183135436067516e+01 3.4080499705106462e+01 -1.7254816117551110e+02  7.6127663511899868e+01 3.0006456023080442e+01 -1.6682375086001616e+02  7.7707252147771584e+01 3.6694865027086884e+01 -1.7740575523639654e+02  7.7409638019926788e+01 3.2243005732486331e+01 -1.7210519970008693e+02  7.7258626563224141e+01 3.4475231213892705e+01 -1.6584543189309136e+02  7.7388732380719588e+01 3.8923399216731617e+01 -1.7086422396376625e+02  7.4191806720507088e+01 3.1470508135644398e+01 -1.6625354403400402e+02  7.7048540752610251e+01 2.9208861083507582e+01 -1.6075138384792646e+02  7.5055419524525945e+01 3.1768751710598451e+01 -1.5703719507839432e+02  7.6199754048033611e+01 3.6173372207491660e+01 -1.6597147299296051e+02  7.5982034502413242e+01 3.2465436536397824e+01 -1.6123978803722929e+02  7.5651848254879411e+01 3.4423545280251197e+01 -1.6201776333324059e+02  7.4661768529844579e+01 3.7932592879932876e+01 -1.6571633783527037e+02  7.6132276871498547e+01 4.0758816308976286e+01 -1.7094486910037438e+02  7.3571047941682110e+01 3.5917261746063517e+01 -1.5747538709900411e+02  7.5052298659852752e+01 3.4269537486518594e+01 -1.5596706053968876e+02  7.8756774577586611e+01 3.4694874206519486e+01 -1.7723389342846957e+02  8.2641103536764703e+01 3.5069992884359287e+01 -1.9009982328830861e+02  8.1672849096718224e+01 3.4529633638664166e+01 -1.9039370628916927e+02  8.1634983970051792e+01 4.2775222061205319e+01 -1.9016464081124235e+02  8.1205414022659141e+01 3.7753573427550762e+01 -1.8353500365286507e+02  7.5212655325708283e+01 9.61597895615622