<?xml version="1.0"?>
<VTKFile type="UnstructuredGrid"  version="0.1"  >
<UnstructuredGrid>
<Piece  NumberOfPoints="5301" NumberOfCells="20842">
<Points>
<DataArray  type="Float64"  NumberOfComponents="3"  format="ascii">-27.687007 34.995013 -33.834579  -25.2638645 35.1631365 -35.464922  -25.226947 32.973049 -32.9149395  -26.1813695 35.808544 -34.13597  -26.769502 34.3496055 -35.163531  -25.851997 33.704198 -36.492483  -23.7213095 33.78658 -33.2163305  -24.309442 32.3276415 -34.2438915  -24.675732 36.622075 -34.437361  -22.766887 30.951085 -31.9953  -33.51739 39.419286 -21.417386  -30.29324 38.777476 -19.6054935  -31.7008395 37.7815325 -19.3769765  -32.8490585 40.661963 -19.987728  -32.1097905 40.4152295 -21.645903  -32.180727 41.90464 -18.55807  -31.032508 39.0242095 -17.9473185  -31.441459 41.6579065 -20.216245  -30.702191 41.411173 -21.87442  -29.884289 36.143779 -17.336567  -30.66551 37.680538 -27.85325  -28.1570395 35.764741 -27.12132  -28.8853805 36.285004 -25.631648  -29.584892 34.91225799999999 -26.7159865  -28.504274 32.143978 -25.578723  -27.0764215 32.996461 -25.9840565  -27.8047625 33.516724 -24.4943845  -27.105251 34.88947 -23.410046  -26.37691 34.369207 -24.899718  -25.648569 33.848944 -26.38939  -30.2820335 35.3848725 -25.231277  -29.898557 33.089207 -22.609304  -28.501904 33.9893385 -23.009675  -29.2014155 32.6165925 -24.0940135  -25.965979 33.761362 -31.5300435  -26.690352 32.216702 -32.515487  -27.3849115 32.9585815 -31.1505405  -27.082816 30.92215 -28.466502  -24.969324 30.983051 -30.2109515  -25.6638835 31.7249305 -28.846005  -26.3882565 30.1802705 -29.8314485  -25.693697 29.438391 -31.196395  -24.244951 32.527711 -29.225508  -32.079842 38.708854 -24.667962  -29.8877835 39.162518 -26.542383  -29.5925465 36.799162 -24.039004  -30.5949495 39.676676 -24.949739  -31.372676 38.194696 -26.260606  -28.107654 37.766984 -24.320781  -29.110057 40.644498 -25.231516  -27.085982 30.040826 -38.728522  -25.667178 28.869256 -36.2821105  -26.382102 27.18592 -37.0322455  -27.107971 28.1331685 -35.766912  -27.12996 26.225511 -32.805302  -24.963298 26.01435 -34.585834  -25.689167 26.9615985 -33.32050049999999  -25.678222 24.331014 -35.335969  -24.248374 27.697686 -33.835699  -30.2870775 37.1828565 -22.5401385  -30.9891995 35.8990305 -23.638633  -29.196435 34.373033 -21.5108095  -28.494313 35.656859 -20.412315  -27.799782 35.2731645 -21.9111805  -21.9422725 32.359341 -35.7375935  -22.653257 33.282039 -34.434569  -23.5984575 31.4049435 -35.546916  -24.195812 34.6585955 -36.6831605  -22.539627 35.612993 -36.873838  -22.0559025 30.028387 -33.2983245  -21.344918 29.105689 -34.601349  -30.395219 28.109953 -37.708901  -28.026609 28.007589 -39.5027335  -28.7406005 29.0753895 -38.2187115  -27.3876755 37.146796 -26.0025815  -29.167805 38.54233 -28.2241835  -28.3900785 40.02431 -26.9133165  -27.6701 39.404122 -28.595117  -28.4649185 37.8870315 -29.766036  -29.9626235 37.0252395 -29.3951025  -29.259737 36.369941 -30.936955  -27.454153 35.1094425 -28.6631725  -26.6593345 36.626533 -27.4922535  -31.0058515 37.5380725 -20.9148505  -32.373288 36.586476 -20.524852  -31.229186 33.753666 -19.632318  -29.8617495 34.7052625 -20.0223165  -30.5567375 34.9487225 -18.4844425  -29.189301 35.900319 -18.874441  -24.230292 30.194738 -31.5958475  -23.505919 31.739398 -30.610404  -30.608016 33.222258 -33.097295  -28.1712765 33.6460455 -29.7017285  -28.845416 32.072204 -30.7818985  -29.9338765 34.7960995 -32.017125  -29.1475115 34.1086355 -33.465937  -28.473372 35.682477 -32.385767  -26.752344 34.448826 -30.0812315  -28.0461985 28.974834 -34.366191  -29.678828 29.917055 -36.81799049999999  -28.962437 31.724157 -35.92708  -28.0242095 30.8824915 -37.32780099999999  -24.4603415 34.574893 -31.8314345  -25.3157275 35.212203 -30.4525215  -27.0367555 36.445854 -32.757057  -26.386504 37.896695 -31.679535  -25.531118 37.259385 -33.058448  -31.3910165 40.0600135 -23.271191  -32.798616 39.06407 -23.042674  -29.598252 38.53401599999999 -21.1433675  -28.7185795 29.7930375 -33.0706885  -28.1508565 31.3303245 -32.146845  -29.7852265 32.4732075 -34.5121875  -27.328067 30.581274 -33.5617375  -25.772847 31.5712945 -33.844439  -24.8010425 33.1862775 -37.6415485  -23.750088 32.668357 -38.790614  -22.547503 30.887023 -36.6959815  -23.1448575 34.140675 -37.832226  -25.0501855 30.700942 -35.164091  -22.796646 28.4016875 -34.218524  -23.5076305 29.3243855 -32.9154995  -33.46713 35.789794 -27.111655  -31.3780275 36.143288 -28.9982795  -32.06632 36.735166 -27.4824525  -28.8820055 34.25695949999999 -28.257839  -28.802185 38.1506785 -22.8219155  -29.906124 41.02783549999999 -23.552968  -28.324722 33.359585 -34.8808295  -27.407217 32.7141775 -36.2097815  -32.090545 34.606038 -30.143309  -29.5866805 32.764094 -29.3049055  -30.675141 35.4879895 -30.540132  -31.3492805 33.914148 -31.620302  -26.4118285 27.831951 -32.0008485  -31.654514 36.23126000000001 -22.15014  -26.6054055 29.7109215 -34.8813895  -24.9710355 28.5680385 -32.516047  -23.6076795 36.11753400000001 -35.6555995  -34.881135 39.849865 -18.201504  -32.382712 37.996822 -17.7690355  -33.530931 40.8772525 -18.379787  -34.1992625 39.6345755 -19.809445  -34.17364449999999 38.0680685 -22.6956745  -32.773486 37.249324 -25.8898085  -30.5638715 33.4214365 -21.120811  -27.8231205 37.133318 -31.308245  -23.999231 30.1830215 -36.3131565  -26.4689895 31.872512 -37.6105025  -25.418035 31.3545915 -38.759568  -26.0175365 35.87281950000001 -29.0344625  -27.028302 38.6504085 -30.137326  -26.3656925 32.385547 -27.427946  -24.94676 33.1883275 -27.807449  -25.965777 37.99063750000001 -26.271423  -24.9550115 35.2130485 -25.1685595  -25.6833525 35.7333115 -23.6788875  -24.261454 36.577153 -23.947729  -25.4449755 39.3067175 -30.653006  -25.2107415 37.4293165 -27.76374  -26.0867735 40.060431 -29.110797  -24.5689435 36.675603 -29.305949  -24.503447 40.71674 -29.626477  -23.627415 38.0856255 -28.27942  -22.751383 35.454511 -26.932363  -20.512076 45.895494 -24.675056  -17.8307765 43.5255055 -24.371085  -18.701242 43.8627405 -23.1190665  -19.1948655 46.383816 -24.7813225  -19.6416105 45.558259 -25.9270745  -18.771145 45.221024 -27.179093  -18.3244 46.046581 -26.033341  -17.877655 46.872138 -24.887589  -17.3840315 44.3510625 -23.225333  -16.890408 41.829987 -21.563077  -23.686356 39.004041 -32.459842  -21.3987565 36.19848349999999 -32.2372035  -20.9254455 37.2037855 -31.3679505  -22.475285 36.520307 -31.140864  -22.6098275 38.6822175 -33.5561815  -21.533299 38.360394 -34.652521  -19.848917 36.881962 -32.46429  -21.264214 34.036573 -29.821886  -19.7143745 34.7200515 -30.0489725  -18.164535 35.40353 -30.276059  -20.14166 48.869196 -18.496357  -17.7607605 46.32708150000001 -18.553239  -18.484819 46.6967555 -16.903316  -19.2726895 45.776121 -18.460408  -18.403719 42.683046 -18.424459  -16.89179 43.2340065 -18.51729  -17.6158485 43.6036805 -16.867367  -16.827978 44.524315 -15.310275  -16.1039195 44.154641 -16.960198  -15.379861 43.784967 -18.610121  -25.73767 42.580176 -25.700214  -22.8976485 39.4332175 -26.971136  -24.3824505 38.6469465 -26.787103  -23.51476 40.3649355 -25.0080045  -25.1205585 41.64845800000001 -27.6633455  -24.999562 39.5786645 -24.8239715  -22.776652 37.363424 -24.131762  -21.29185 38.149695 -24.315795  -23.825359 35.966634 -30.7507105  -22.969973 35.329324 -32.1296235  -22.7545825 33.28214199999999 -29.523697  -21.707873 37.961062 -29.9029445  -23.2188695 37.229276 -29.6961025  -22.1164185 38.81741150000001 -28.486262  -24.0949015 39.8603905 -31.0431595  -21.2403865 36.186297 -27.139205  -19.72939 36.918083 -27.346047  -23.168855 44.769337 -24.390788  -20.6577605 43.9076165 -24.6277985  -21.2535225 44.669738 -26.1654145  -21.98615 43.344538 -24.4856645  -21.8404655 45.3324155 -24.532922  -22.581912 44.1066595 -26.0232805  -21.994969 43.443982 -27.655773  -21.399207 42.6818605 -26.118157  -20.803445 41.919739 -24.580541  -20.2026 43.217336 -23.071105  -21.5309895 42.6542575 -22.928971  -19.893124 40.539178 -21.467154  -20.3482845 41.2294585 -23.0238475  -20.139763 41.4862445 -26.107668  -21.6434095 40.7968385 -25.985784  -21.0476475 40.034717 -24.448168  -19.7882035 38.839101 -24.437679  -18.284557 39.528507 -24.559563  -19.544001 40.724123 -24.570052  -20.592487 39.3444365 -22.8914745  -19.0888405 40.0338425 -23.0133585  -22.0216165 36.802103 -25.624079  -23.5064185 36.015832 -25.440046  -20.8621795 40.1810325 -27.50091  -23.249208 42.080361 -28.641125  -20.51062 37.533889 -25.830921  -20.6622995 35.349072 -33.624837  -18.9779175 33.87064 -31.436606  -20.527757 33.1871615 -31.2095195  -19.7913 32.33775 -32.597153  -20.909425 43.640415 -21.5788585  -22.5472905 45.7554945 -23.0406755  -21.925726 46.741652 -21.690563  -21.218901 46.318573 -23.1828095  -22.036463 36.9866935 -35.7631795  -22.233516 34.4799125 -33.517257  -23.1045155 37.4912345 -34.544941  -21.1654635 33.9753715 -34.7354955  -21.2790935 31.6444175 -32.2962265  -24.181044 37.813058 -33.4486015  -17.8827465 44.834023 -21.8636325  -19.6935805 46.8667765 -23.419622  -18.875085 47.838059 -22.164188  -18.37637 47.3550985 -23.5258885  -26.703885 40.992149 -27.1476655  -19.787295 43.5703815 -25.879817  -20.383057 44.332503 -27.417433  -18.527851 42.3747655 -25.869328  -18.8469265 41.874863 -23.071809  -17.5874825 40.679247 -23.06132  -18.391766 41.1845825 -21.5151155  -23.8663195 43.012079 -26.6779935  -24.199976 34.6517275 -26.6608765  -22.994945 41.927618 -22.8195745  -22.821035 39.085899 -21.248361  -21.81224 40.502819 -22.914451  -21.3570795 39.8125385 -21.3577575  -22.0564425 38.617797 -22.782078  -23.2705575 42.2499575 -25.1403775  -24.2793525 40.8330375 -23.4742875  -24.4532625 43.6747565 -25.045501  -23.498167 33.991111 -28.0789355  -22.0077985 34.745542 -28.3771245  -25.03643 38.450368 -32.0696885  -19.0069735 38.223295 -25.952805  -24.938409 45.163014 -21.780219  -22.4157665 42.851096 -21.6236865  -23.879722 42.12445649999999 -21.51429  -24.053632 44.9661755 -23.0855035  -23.505986 47.334749 -18.517293  -20.003556 46.0839405 -16.840736  -20.9548525 45.0088975 -1
[...]
<PointData  Scalars="c_HbCO2"> 
<DataArray  type="Float64"  Name="c_HbCO2"  format="ascii">3.6234801025896129e-27  3.6225883773975806e-27  3.6773225690798371e-27  3.6229337261201571e-27  3.6250978302380071e-27  3.6527926280761172e-27  3.6363657252720545e-27  3.6364779776339612e-27  3.6059175562403468e-27  3.6088236729363703e-27  3.6218782494399845e-27  3.6815969773064146e-27  3.7935547893909067e-27  3.6321722072906287e-27  3.6608269425096965e-27  3.6212085271822522e-27  3.7222931100562661e-27  3.6093537447618701e-27  3.6276008724376486e-27  3.6434216517857008e-27  3.6234767753365033e-27  3.7134725647275067e-27  3.6854100439039216e-27  3.7116671882850084e-27  3.6494407119137814e-27  3.6184763497479391e-27  3.6368528613838631e-27  3.6263942700243081e-27  3.6486788560693057e-27  3.6254520631484234e-27  3.6642880934575835e-27  3.6616997784546494e-27  3.6142497313668269e-27  3.6684730536951155e-27  3.6471302820801020e-27  3.6603011371981529e-27  3.6148163659128015e-27  3.6320081122620367e-27  3.6275109659825942e-27  3.6049340084249970e-27  3.6449498071256057e-27  3.6316260672166426e-27  3.6261827720400434e-27  3.6240852497879346e-27  3.6374753744002846e-27  3.7424589460662053e-27  3.6632880055858631e-27  3.5987612619988272e-27  3.6698484084734298e-27  3.6213645862823374e-27  3.6582792331966571e-27  3.6405835174253702e-27  3.6748900128171612e-27  3.6182301565704321e-27  3.6429651044024230e-27  3.6165189585544360e-27  3.6015009905053115e-27  3.6287059577608340e-27  3.6214036365999439e-27  3.7184921610975272e-27  3.7482932754449899e-27  3.6394466064599502e-27  3.6369562431957086e-27  3.6592297928165997e-27  3.6400531931501002e-27  3.6039891318225209e-27  3.6425507120381283e-27  3.6054651223542924e-27  3.6219375471228479e-27  3.6393808746045228e-27  3.6263750030297305e-27  3.6388095443820164e-27  3.6018359232121312e-27  3.6124338216588498e-27  3.6189814872289078e-27  3.6572417289718772e-27  3.5883448559377687e-27  3.6313131056061136e-27  3.6282520810698185e-27  3.5936792571284847e-27  3.6256995437366489e-27  3.6660479844568583e-27  3.6551283244749798e-27  3.7736803758010002e-27  3.7617910498851893e-27  3.7128335201692686e-27  3.5924610145573119e-27  3.6592629097939656e-27  3.6697384540473916e-27  3.6181329215157471e-27  3.6321237555449653e-27  3.6261314069107542e-27  3.6743231211426361e-27  3.6778078630941659e-27  3.6233922483630655e-27  3.6446685625071485e-27  3.6251133209311195e-27  3.7000236211583305e-27  3.7108414705121635e-27  3.6161206368065657e-27  3.6362926026815647e-27  3.6125587981469305e-27  3.6112890511918431e-27  3.6423785969646981e-27  3.6126743540504573e-27  3.6416146109988988e-27  3.6232004711109169e-27  3.6293705494680456e-27  3.6221819466544341e-27  3.6921334814381202e-27  3.6233475062823016e-27  3.7130917095371107e-27  3.6171683870056249e-27  3.6659154649701383e-27  3.5939154063209690e-27  3.5892821806366295e-27  3.6399689409029265e-27  3.6349884687289140e-27  3.5967328436443258e-27  3.6878527575412150e-27  3.6034001963387871e-27  3.6030391938197695e-27  3.6504366811979651e-27  3.6403076667825450e-27  3.6536569958704393e-27  3.6410684564429019e-27  3.6359281692614522e-27  3.6244622550767649e-27  3.6175780146410290e-27  3.6049564994246617e-27  3.6281614166060603e-27  3.7339224064086889e-27  3.6504685964818780e-27  3.6101201460511841e-27  3.6164835022664355e-27  3.7144957737889746e-27  3.6460461748812085e-27  3.6500010112481462e-27  3.6578788833797265e-27  3.6508127379179743e-27  3.7823961271334279e-27  3.6736743788224524e-27  3.6154099728312856e-27  3.6462737766917252e-27  3.6443145145291274e-27  3.6745088913374467e-27  3.6270833139047978e-27  3.6177758083933455e-27  3.6016430670250353e-27  3.6359593921835589e-27  3.6021688363933818e-27  3.5903007576897899e-27  3.6186492352579260e-27  3.6481681948693685e-27  3.6457487365274385e-27  3.6379653680854492e-27  3.6094961807227951e-27  3.6200970673844563e-27  3.6417102438351725e-27  3.6702310358442304e-27  3.6139858793335442e-27  3.6384201078288854e-27  3.6425719181817099e-27  3.6343991187195957e-27  3.6146856045263739e-27  3.6302341340907158e-27  3.6427329405958407e-27  3.6406026308273218e-27  3.5930680841706080e-27  3.6307326423895095e-27  3.6483891253136052e-27  3.5654094204463367e-27  3.6177142583539758e-27  3.6121842975539861e-27  3.6055968392653840e-27  3.6066456001913860e-27  3.6222903160711726e-27  3.6668384620128816e-27  3.6246075952563714e-27  3.6501897958150844e-27  3.6195143571003939e-27  3.6374370138031985e-27  3.6156463337426222e-27  3.5837706209374939e-27  3.6056103657540434e-27  3.6520428529115450e-27  3.6414779493181162e-27  3.6300310303017861e-27  3.6089928639429162e-27  3.6136441639093724e-27  3.6392656665995321e-27  3.6265982044005449e-27  3.6131064997409600e-27  3.6235878268512972e-27  3.6120466384077261e-27  3.6611481790507868e-27  3.6417692099476889e-27  3.6049519622746221e-27  3.6468054044592061e-27  3.5618311004336479e-27  3.6444905072207554e-27  3.6212266752290392e-27  3.6133546311723963e-27  3.6632835432487144e-27  3.6373244911585821e-27  3.6042590245496893e-27  3.6022484512608135e-27  3.6162131417942039e-27  3.6086049664456623e-27  3.6137020034881196e-27  3.6216898441618324e-27  3.6383600660733189e-27  3.6269158419612895e-27  3.6022886798839292e-27  3.6317085526941295e-27  3.6835440760234141e-27  3.6197893276720967e-27  3.6696055410332423e-27  3.6430398853152953e-27  3.6316285852555180e-27  3.6407153327229814e-27  3.6265786768940408e-27  3.6128691181135695e-27  3.6321055735863214e-27  3.6407076654883725e-27  3.6168051480617945e-27  3.6487803247146454e-27  3.5897546162625560e-27  3.5706665879674801e-27  3.6237028978514577e-27  3.6777550447008392e-27  3.6469080857603597e-27  3.6191481002920525e-27  3.6298332796892621e-27  3.6385320706051760e-27  3.6289517986369034e-27  3.5963604497737703e-27  3.6148196150983028e-27  3.5946026790057567e-27  3.6352726478286482e-27  3.6551124129802558e-27  3.6121757213521184e-27  3.6003877472645356e-27  3.5992238303797227e-27  3.6284558844408418e-27  3.5806516750846220e-27  3.6139131239055789e-27  3.6663564813778716e-27  3.6388325638614487e-27  3.6297747639700293e-27  3.5951298802931393e-27  3.5971468620535768e-27  3.6085467938717095e-27  3.6519934911181387e-27  3.6102745997699710e-27  3.5903106069626007e-27  3.6288418096938992e-27  3.5654674838807933e-27  3.5550298796960144e-27  3.6114599282670566e-27  3.5685595890653795e-27  3.6556534122065157e-27  3.5862242551525166e-27  3.5976180553698018e-27  3.6056266873377383e-27  3.5811649203836127e-27  3.6226835262737376e-27  3.5576567205521883e-27  3.6117104640738482e-27  3.6414929075513285e-27  3.6141906980549977e-27  3.6532464005019619e-27  3.5489523931615980e-27  3.6237057939955024e-27  3.6336069433378096e-27  3.5827999794480175e-27  3.6172372047505274e-27  3.6229844257289150e-27  3.6712015241881016e-27  3.6369518203442416e-27  3.6413145727089543e-27  3.6211198858585690e-27  3.5937720816806713e-27  3.6700047569374962e-27  3.6233756189450928e-27  3.6159956094932381e-27  3.6264304767451427e-27  3.6193060043324477e-27  3.6229143365365783e-27  3.6132728014324075e-27  3.5960743455201196e-27  3.6148414497800217e-27  3.6159845006310255e-27  3.5970400930187506e-27  3.6435890995168566e-27  3.6389676899961369e-27  3.6204534600836153e-27  3.6503178344634207e-27  3.6320447571291734e-27  3.6136880377209421e-27  3.6340577618209655e-27  3.6399944720177309e-27  3.6394130191215812e-27  3.6316339798346943e-27  3.6104481286425197e-27  3.5835309508820298e-27  3.6031588577566442e-27  3.6020015992061967e-27  3.5937719369084200e-27  3.6085469445762117e-27  3.6049078249447524e-27  3.6310591921639606e-27  3.6141496947795673e-27  3.6147928959476553e-27  3.6135137177526805e-27  3.6233420387187961e-27  3.6112103230723381e-27  3.6074481654503978e-27  3.6966830078624212e-27  3.6669374724370707e-27  3.6406485398858315e-27  3.6205745076970463e-27  3.6401158072955861e-27  3.6234542127717187e-27  3.6834456932786444e-27  3.6619580601526121e-27  3.5956417021289807e-27  3.6075684850967573e-27  3.6057596208686492e-27  3.6247131614575645e-27  3.6699758136059275e-27  3.6323615760980463e-27  3.7214720960220851e-27  3.6192473021115046e-27  3.6417607856579773e-27  3.7452735717500082e-27  3.7410089925343829e-27  3.6552047869200221e-27  3.6284704225232620e-27  3.6810806156701410e-27  3.6407132704172521e-27  3.6584473750133590e-27  3.6271533064551249e-27  3.6190361108725138e-27  3.6387083334441245e-27  3.6286174050055446e-27  3.6063656661080835e-27  3.6896949224403317e-27  3.6308162787994057e-27  3.6208309982402703e-27  3.6253744069231373e-27  3.6419448074364445e-27  3.6449821222770581e-27  3.6248165270936922e-27  3.6470362840384548e-27  3.6792513899560866e-27  3.7978060284919021e-27  3.6370514333100886e-27  3.6543170033310629e-27  3.6201080136442281e-27  3.7208982884690778e-27  3.6047427372587921e-27  3.6335432475901336e-27  3.6449941948964697e-27  3.6429523682967971e-27  3.7436222765082598e-27  3.7418131037674830e-27  3.6572053153895276e-27  3.6250033070126385e-27  3.6826008648994381e-27  3.6282861969083304e-27  3.5940450728120450e-27  3.6504111240612414e-27  3.6120592989629403e-27  3.6332975268143385e-27  3.6471892182175505e-27  3.6246093706934449e-27  3.6268855338772832e-27  3.5889046072197070e-27  3.5994006821838687e-27  3.6329101170485278e-27  3.6867771630909310e-27  3.6053949676892801e-27  3.7177974123789764e-27  3.7272872003140511e-27  3.6055078258388342e-27  3.7782766937868247e-27  3.6638573171583803e-27  3.6192311018829343e-27  3.6414040526717991e-27  3.6940841821109017e-27  3.6106466808303289e-27  3.6171775708643525e-27  3.6367659388447681e-27  3.6049201089797266e-27  3.6997614715273012e-27  3.6680904144574641e-27  3.6340677093826669e-27  3.6461771486904368e-27  3.6259873562944717e-27  3.6414991117638569e-27  3.6244623153578888e-27  3.6602338347487541e-27  3.6202177093630299e-27  3.7022177190276229e-27  3.6091833210455164e-27  3.6030616824322150e-27  3.6046725005659624e-27  3.6396782634034860e-27  3.6247406957932078e-27  3.6207226875719614e-27  3.6066886148591082e-27  3.6287404192116602e-27  3.6472673069801529e-27  3.5919997923859844e-27  3.6024989791459871e-27  3.6360391572515792e-27  3.6480987116807350e-27  3.6376384569896409e-27  3.6420175771325665e-27  3.6137497812052354e-27  3.6345090496265884e-27  3.7169162326314605e-27  3.6904056310192427e-27  3.6449926849158793e-27  3.6615859544047047e-27  3.6533956155285296e-27  3.6280954541579197e-27  3.6369374075647675e-27  3.6609649358242192e-27  3.6238321939974350e-27  3.6817677181911937e-27  3.6225082100536808e-27  3.6413040360428867e-27  3.6007485867589656e-27  3.6243918803119636e-27  3.6278642213559599e-27  3.6396845142200190e-27  3.6577745857909585e-27  3.6563743089451723e-27  3.6198923691713424e-27  3.6138971257762583e-27  3.6187754789900406e-27  3.6442229342193175e-27  3.6127592304540880e-27  3.6204974076317917e-27  3.6132373531927953e-27  3.6416280802250492e-27  3.6229242397033240e-27  3.6124973041080320e-27  3.6305331716998141e-27  3.6172069832613723e-27  3.6584358935694582e-27  3.6585204208424598e-27  3.6675972554284650e-27  3.6136494912886117e-27  3.6076112272797813e-27  3.6115463010151852e-27  3.6336341483706226e-27  3.6453517261692064e-27  3.6249417650204703e-27  3.6190962155858759e-27  3.6466064618775613e-27  3.5898404291977858e-27  3.6268604084372524e-27  3.6646493201275817e-27  3.6391229128336749e-27  3.6058508804272741e-27  3.6315885847217179e-27  3.6260790812231403e-27  3.6328472631420129e-27  3.6346629190325763e-27  3.6257067360301252e-27  3.6207849494132052e-27  3.6996152170091551e-27  3.6193463633338793e-27  3.6281502461903295e-27  3.6438955522362106e-27  3.6511013821952775e-27  3.6118574240608460e-27  3.6065745710307622e-27  3.6421794026014897e-27  3.6219309813046734e-27  3.6298802746345455e-27  3.6160096143403215e-27  3.6382855969600849e-27  3.6105560093326727e-27  3.6174349669818531e-27  3.5840972017740690e-27  3.6490115001779014e-27  3.6219792904621410e-27  3.6304302301966486e-27  3.5996957448918217e-27  3.6342600358614198e-27  3.5918531966921892e-27  3.6161249593962445e-27  3.6307459296637319e-27  3.6064295485712614e-27  3.6169220591318635e-27  3.6278460346489150e-27  3.6387914641585694e-27  3.5915673828357229e-27  3.6371053312722952e-27  3.6195230778679613e-27  3.6202607336169078e-27  3.6387097363568365e-27  3.6346117899738865e-27  3.6210984132898299e-27  3.6014682806237809e-27  3.6248795236937382e-27  3.6158405116645760e-27  3.6119742712264740e-27  3.6178495466988617e-27  3.5873630247317900e-27  3.6241913494680997e-27  3.6095231553561432e-27  3.6687062857225205e-27  3.6147356444416346e-27  3.6386387211244942e-27  3.6411690369052977e-27  3.5899160243272141e-27  3.6092270123382892e-27  3.6174098737866038e-27  3.5907582368202398e-27  3.6653590642134790e-27  3.6255928634470666e-27  3.5979087684487923e-27  3.6214281759742147e-27  3.6195430554935827e-27  3.6272493961538980e-27  3.6300462632078681e-27  3.6279780020718979e-27  3.6173350878336509e-27  3.6201486972564301e-27  3.5959694573304233e-27  3.6203831213051960e-27  3.6075242608413805e-27  3.6152501443174176e-27  3.6487549979145007e-27  3.6181047128855654e-27  3.6449670290503687e-27  3.6005993976667742e-27  3.6042315063401970e-27  3.6369227270259145e-27  3.5810873875835682e-27  3.6139088313028966e-27  3.6257738239569686e-27  3.6151168487545000e-27  3.6171901342570931e-27  3.6274751656654566e-27  3.6225156390949587e-27  3.6299612024251160e-27  3.6343223107371338e-27  3.6280937502479390e-27  3.6019602698254584e-27  3.6142337893645305e-27  3.6098902678033379e-27  3.6542931265595289e-27  3.6093587065875989e-27  3.6071932663462266e-27  3.6274558400690160e-27  3.6373941838902847e-27  3.6187611732629697e-27  3.5943918863437520e-27  3.6459349519947839e-27  3.6402469023036851e-27  3.6244495673078391e-27  3.5888349236248385e-27  3.6171819199639414e-27  3.6351583298086441e-27  3.6235675709047327e-27  3.6078121276653347e-27  3.6102132659865115e-27  3.6436466200726746e-27  3.6392280472905139e-27  3.6305846757291856e-27  3.6015943680398628e-27  3.6002540272861498e-27  3.6582329318043300e-27  3.6222058600706269e-27  3.6219623784327040e-27  3.6032493313777573e-27  3.6206029770270141e-27  3.6347242924302528e-27  3.6020238164736376e-27  3.5765190726469581e-27  3.5937372529575571e-27  3.6114429674376533e-27  3.5831437285148342e-27  3.6105878747782431e-27  3.6313379527066722e-27  3.6159016966986564e-27  3.6109995349004534e-27  3.6144578248723610e-27  3.6259272344792552e-27  3.6417611132610316e-27  3.6242798423066390e-27  3.6312055149396910e-27  3.6147774733316394e-27  3.6032605517727824e-27  3.6371240458541628e-27  3.6181495354342255e-27  3.6120426709776990e-27  3.5964132081762659e-27  3.6147031941565361e-27  3.6170357897056343e-27  3.5961094223015905e-27  3.6681366609950151e-27  3.6290194324545824e-27  3.6226108274809258e-27  3.6296831746944950e-27  3.6101435200283014e-27  3.6074517044601004e-27  3.5688806350061213e-27  3.6334280785997854e-27  3.5943284416073694e-27  3.6485586612162842e-27  3.6142421425091274e-27  3.6408341601532102e-27  3.5817241316181957e-27  3.6194077335158835e-27  3.6068677374012556e-27  3.6037969596009543e-27  3.6019701527407992e-27  3.6106059557718742e-27  3.6073819563475586e-27  3.6194546388452350e-27  3.6047852643654819e-27  3.5988396555169310e-27  3.6149456466126539e-27  3.6173594213776189e-27  3.6356671228574947e-27  3.6161278778832563e-27  3.5890127687833906e-27  3.5963955516975472e-27  3.6381126618557001e-27  3.6228468278624511e-27  3.6668443486774492e-27  3.6424150599392261e-27  3.6151199515252040e-27  3.6129738925660664e-27  3.6366802064081040e-27  3.5954258095631938e-27  3.6122502288879199e-27  3.6507701072309812e-27  3.5869639000456201e-27  3.6213788263177990e-27  3.6296402319116747e-27  3.6026305062846509e-27  3.6142410650179820e-27  3.6315811026603477e-27  3.6202040422706393e-27  3.6026272639549879e-27  3.6222849846453507e-27  3.6450710341095385e-27  3.5944952899335158e-27  3.6208749160515944e-27  3.6104166390384453e-27  3.6166218229176918e-27  3.6315525639174465e-27  3.6146664552695028e-27  3.5745339715680339e-27  3.6182758399870147e-27  3.6287567232256455e-27  3.5507526802081538e-27  3.6148902587732498e-27  3.6235216702500671e-27  3.5893880907853639e-27  3.6297772199814901e-27  3.6212473313419256e-27  3.6274067553222799e-27  3.5904535020999331e-27  3.6085469499646006e-27  3.6343950103801320e-27  3.5735212942183432e-27  3.6179855424850492e-27  3.6409702597216558e-27  3.6305601825761355e-27  3.6146006252231088e-27  3.6276478583714290e-27  3.5784382401900361e-27  3.6104574640946927e-27  3.5752671319392010e-27  3.6533124264564302e-27  3.6248662286769792e-27  3.5854423724039886e-27  3.6239988973931599e-27  3.6149403262793359e-27  3.6210085950844664e-27  3.6594858306117747e-27  3.6146017206897791e-27  3.6046230343975823e-27  3.6130380227534137e-27  3.6390313813713047e-27  3.6127969112538406e-27  3.6469321064296293e-27  3.6159168826317130e-27  3.6142738458143224e-27  3.6449254493983604e-27  3.6175500463208790e-27  3.6215053192608453e-27  3.5892340267631897e-27  3.5946165168551109e-27  3.6374100463725593e-27  3.6094615385514215e-27  3.5942919825804060e-27  3.6351817067824526e-27  3.6109519850424238e-27  3.6478784888979999e-27  3.6277483214726576e-27  3.5945172118695515e-27  3.6191804464755858e-27  3.6132058385528753e-27  3.6313542871235691e-27  3.6206074598881794e-27  3.5821114396704548e-27  3.6217672239874673e-27  3.6208632416719684e-27  3.6152108180499501e-27  3.5895253802925350e-27  3.6399357505956300e-27  3.5829690886503382e-27  3.5885870193870778e-27  3.5908787360305833e-27  3.6261123764628643e-27  3.6352595742110522e-27  3.6470806330521873e-27  3.6366451236014245e-27  3.6151188849602283e-27  3.6399748700731819e-27  3.6119221127314663e-27  3.6421169820029122e-27  3.6012812688909660e-27  3.6431786808932610e-27  3.6550258498894411e-27  3.6334552701423701e-27  3.5850028971996236e-27  3.6228255312527992e-27  3.6388319204981918e-27  3.6045725289557995e-27  3.6209218698338638e-27  3.6122496750453930e-27  3.6228992308898720e-27  3.6196313859546826e-27  3.5967401655773063e-27  3.6230488042344153e-27  3.6151502123334197e-27  3.6176295622984214e-27  3.6111924443596898e-27  3.6147532548877354e-27  3.6141365429334148e-27  3.6136305421725904e-27  3.6264153692274503e-27  3.6073358639273385e-27  3.6234886808024449e-27  3.6346828046585406e-27  3.6261899248735656e-27  3.6142918587108376e-27  3.6281896629933558e-27  3.5938739727334982e-27  3.6146378777117285e-27  3.6216169638852147e-27  3.6100872677879289e-27  3.6602584983030825e-27  3.6110173927442709e-27  3.6195839018599485e-27  3.5863415276088912e-27  3.6211122381811095e-27  3.6410340372056792e-27  3.6246252541635922e-27  3.6043071396703349e-27  3.5762356792253657e-27  3.6187946499116514e-27  3.6164306040165393e-27  3.6470453580110873e-27  3.6000155675117879e-27  3.6670497761292772e-27  3.6040051972590861e-27  3.6226908628196433e-27  3.6267946321664512e-27  3.5896135849846337e-27  3.5943611045983019e-27  3.6003224787199362e-27  3.6432244820724727e-27  3.6238930186431281e-27  3.5908146891594545e-27  3.6496920612546005e-27  3.6198986979777477e-27  3.5590302512202115e-27  3.5798511890209792e-27  3.6277714127396189e-27  3.5946267095720316e-27  3.6202506754573834e-27  3.5843841970546453e-27  3.6519705364790845e-27  3.6112981975370304e-27  3.6177262637210805e-27  3.6379585275984286e-27  3.6189671139754398e-27  3.6200034231705031e-27  3.6042456375812774e-27  3.6382586317665799e-27  3.6123476120968246e-27  3.6361288464445565e-27  3.5923656841834295e-27  3.6279622606764454e-27  3.6514962266354794e-27  3.6340316779302691e-27  3.6172779731145117e-27  3.6408433678752200e-27  3.6336966073864605e-27  3.6144253043057582e-27  3.6085936867103616e-27  3.6199673183955912e-27  3.6187248916636285e-27  3.6224534717232261e-27  3.6123135203407761e-27  3.6126331004722665e-27  3.6240877334792274e-27  3.6457637638190025e-27  3.6156702390598828e-27  3.5879515297342887e-27  3.6047981030062084e-27  3.5961004019754882e-27  3.6503459156944867e-27  3.6297733876649432e-27  3.6658053580955464e-27  3.6349240225673428e-27  3.5922411294393906e-27  3.62440597457