<?xml version="1.0"?>
<VTKFile type="UnstructuredGrid"  version="0.1"  >
<UnstructuredGrid>
<Piece  NumberOfPoints="5679" NumberOfCells="22092">
<Points>
<DataArray  type="Float64"  NumberOfComponents="3"  format="ascii">-26.380445 38.799545 30.572331  -22.929021 36.6179895 30.674059  -23.7176035 37.5236395 28.9133325  -24.466328 36.2905605 29.865285  -24.843138 39.126974 31.381105  -23.305831 39.454403 32.189879  -22.1802965 37.8510685 29.7221065  -22.552211 33.781576 29.158239  -21.8034865 35.014655 28.2062865  -21.054762 36.247734 27.254334  -24.0158765 40.473935 30.2628695  -25.5531835 40.146506 29.4540955  -24.725922 41.493467 28.33586  -22.890342 38.8706005 27.795097  -27.886439 36.031952 32.558331  -25.973891 35.7463255 29.2277585  -27.133442 37.4157485 31.565331  -28.615414 36.9978505 30.715756  -25.567337 32.693106 27.883186  -24.059774 33.237341 28.5207125  -24.7737315 31.9022385 29.4095935  -25.219325 34.906764 30.858285  -23.980126 31.111371 30.936001  -23.2661685 32.4464735 30.04712  -27.839156 40.574276 26.734051  -24.412228 38.3688915 27.178492  -25.968845 37.909296 26.3775875  -27.1098005 39.6869105 28.653191  -26.282539 41.0338715 27.5349555  -25.2394895 37.0219305 28.2967275  -24.098534 35.244316 26.021124  -26.7214615 36.6040325 27.4471525  -24.8329355 33.968711 26.952155  -24.383341 33.87343 32.6396895  -25.9332825 33.5716615 31.747166  -27.1440315 34.8723375 34.3236005  -26.3364975 36.3337205 33.45085450000001  -26.401624 33.712723 36.08887  -25.190875 32.412047 33.5124355  -25.59409 35.17410599999999 35.216124  -24.786556 36.635489 34.343378  -25.5835005 37.717517 32.4578545  -23.6693835 35.2085325 31.7508085  -24.0461935 38.044946 33.2666285  -23.3253725 34.512946 27.5896815  -22.576648 35.746025 26.637729  -26.6762015 32.1439785 32.589504  -24.32856 31.517139 34.962911  -25.9096445 30.969885 34.3015575  -25.0995505 30.0163695 35.706625  -22.255496 29.321555 33.836952  -23.117811 30.216463 32.3864765  -23.625814 39.5552575 26.184068  -21.790234 36.932391 25.643305  -23.31212 36.430682 25.0267  -22.525706 37.617048 24.032276  -25.5098115 42.284375 26.304252  -25.182431 39.095662 25.3831635  -27.0664285 41.8247795 25.5033475  -26.293701 43.075283 24.272644  -24.4097035 40.3461655 24.15246  -25.9112575 39.7909765 23.489105  -26.683985 38.540473 24.7198085  -25.528814 36.50667 22.705566  -24.02726 37.061859 23.368921  -24.813674 35.875493 24.363345  -25.350733 49.366838 7.500374  -22.4325385 47.578345 6.120832999999999  -23.143987 47.0320225 7.7436705  -23.9120845 49.981141 7.9646195  -22.473436 50.595444 8.428865  -20.99389 48.19264800000001 6.5850785  -21.7053385 47.6463255 8.207916000000001  -20.937241 44.697207 7.986967  -20.2257925 45.2435295 6.3641295  -19.514344 45.789852 4.741292  -29.360395 41.866375 22.829232  -27.4446045 39.1865225 22.767399  -28.5997755 41.2203255 24.7816415  -27.827048 42.47082899999999 23.550938  -22.226418 51.38171 1.380647  -19.5191655 49.12171650000001 3.4252165  -20.171464 48.980808 1.4156635  -20.870381 48.585781 3.0609695  -21.5741195 51.5226185 3.3902  -20.921821 51.663527 5.399753  -20.2180825 48.72668950000001 5.070522499999999  -18.815427 46.184879 3.095986  -18.11651 46.579906 1.45068  -26.67362 46.048854 17.436199  -24.287786 43.6221275 17.7075855  -25.247973 43.8501695 15.7475125  -25.994056 42.867351 17.1473635  -25.314492 39.685848 16.858528  -22.862139 41.423443 16.018899  -23.608222 40.4406245 17.41875  -24.568409 40.6686665 15.458677  -23.822326 41.651485 14.058826  -21.901952 41.195401 17.978972  -26.784543 48.041622 10.516218  -24.5917685 45.6804455 10.774585  -25.358653 48.676356 10.994817  -26.0406055 47.9204135 12.5264415  -25.296668 47.799205 14.536665  -23.847831 45.559237 12.7848085  -24.6147155 48.5551475 13.0050405  -23.932763 49.31109 11.473416  -23.1658785 46.3151795 11.253184  -22.398994 43.319269 11.032952  -23.860892 46.3694145 9.251592500000001  -22.435002 47.0041485 9.7301915  -21.6681175 44.008238 9.509959500000001  -23.475924 50.766825 -2.758698  -20.6406505 48.64589650000001 -3.740204  -21.619921 48.326511 -2.3597125  -22.3861725 47.845335 -4.0397365  -22.4966535 51.0862105 -4.139189500000001  -21.517383 51.405596 -5.519681  -21.406902 48.1647205 -5.420228  -21.296421 44.923845 -5.320775  -20.5301695 45.405021 -3.640751  -19.763918 45.886197 -1.960727  -29.556736 46.613863 9.462933  -27.489422 47.9948255 8.501096499999999  -26.810719 44.892803 8.509387499999999  -28.1706395 47.3277425 9.989575500000001  -28.8755185 47.280946 7.974454  -28.194301 47.948029 6.485975  -26.1295015 45.559886 7.0209085  -25.4246225 45.6066825 9.03603  -24.064702 43.171743 7.555842  -25.080371 45.27319 21.384884  -22.963991 42.5173755 21.6969345  -23.4911615 43.2342955 19.681928  -24.4842465 42.0602365 20.942396  -23.888122 38.847283 20.499908  -21.3747815 40.478481 19.9939785  -22.3678665 39.304422 21.2544465  -22.895037 40.021342 19.23944  -20.847611 39.761561 22.008985  -22.176452 50.645696 -8.900475  -20.21131 48.449537 -7.081892  -20.811621 51.2535995 -8.579609999999999  -21.8469175 51.025646 -7.210078  -18.846479 49.0574405 -6.761026999999999  -19.8817755 48.829487 -5.391495  -20.4820865 51.6335495 -6.889213  -19.44679 51.861503 -8.258744999999999  -18.246168 46.253378 -5.263309  -25.0909115 40.96128299999999 22.386276  -23.570656 41.418422 23.1408145  -25.687036 44.1742365 22.828764  -26.484629 49.184228 -3.933975  -24.5151065 46.518416 -6.487512499999999  -23.890525 47.0540365 -4.627375000000001  -25.375156 46.2772945 -4.7141875  -25.6245795 49.4253495 -5.7073  -24.76453 49.666471 -7.480625  -23.0304755 47.295158 -6.400700000000001  -24.265683 43.370361 -5.4944  -22.781052 44.147103 -5.4075875  -23.861297 50.46885 4.419689  -21.6878205 48.129351 4.5804905  -22.53504 47.8635365 2.895556  -23.0438575 50.92528 2.900168  -21.7176005 48.3199665 1.376035  -21.208783 45.258223 1.371423  -20.3615635 45.52403750000001 3.0563575  -28.068331 48.453266 -0.6707  -25.420662 46.4583245 -1.3839605  -26.143568 46.0918305 0.1895385  -26.869128 45.648447 -1.505663  -25.669925 42.843628 -2.340626  -24.221459 43.6535055 -2.2189235  -24.944365 43.28701150000001 -0.6454245  -24.218805 43.730395 1.049777  -23.495899 44.096889 -0.5237219999999999  -22.772993 44.463383 -2.097221  -18.6029835 49.3463465 5.102173499999999  -17.200328 46.804536 3.127637  -17.899245 46.409509 4.772943  -16.284146 47.029166 4.804594  -28.013473 44.063292 20.240347  -25.9507975 41.4552875 20.3701275  -26.546922 44.66824099999999 20.8126155  -27.153587 43.5692875 22.2564955  -28.16675 46.492943 13.455127  -26.81973 44.1085255 11.977322  -27.5359775 43.24360299999999 13.371525  -28.210946 43.3682775 11.414735  -26.905205 39.994263 13.287923  -26.1889575 40.8591855 11.89372  -25.47271 41.724108 10.499517  -19.2641505 49.351764 -0.06314399999999998  -19.81875 52.332953 0.4032070000000001  -20.7260635 51.961997 1.8820145  -21.3191045 51.752666 -0.09816049999999998  -20.411791 52.123622 -1.576968  -19.225709 52.542284 2.383382  -18.6711095 49.561095 1.917031  -29.514747 44.72368 16.268747  -26.6685365 43.1875825 15.1637865  -27.4146195 42.204764 16.5636375  -28.209976 42.3589715 14.778335  -25.3637655 40.822874 13.6733745  -26.1098485 39.8400555 15.0732255  -20.815252 47.683701 9.88185  -21.5449155 47.041524 11.4041255  -23.2030995 49.953267 9.951140500000001  -20.0471545 44.7345825 9.660900999999999  -19.157068 44.771958 11.334835  -20.0433995 48.335239 8.302851499999999  -19.275302 45.3861205 8.0819025  -18.3852155 45.423496 9.755836500000001  -17.613363 46.075034 8.176838  -26.926195 37.459726 19.280793  -25.4071585 38.1535045 19.8903505  -26.2275045 36.983198 20.9931795  -26.6242585 40.356829 21.66457  -24.708468 37.67697649999999 21.602737  -25.994538 44.072214 13.7569765  -26.731709 47.146074 13.995896  -27.420185 46.2708985 15.445663  -24.559497 44.725345 14.2977455  -25.985144 46.9240295 15.986432  -25.282872 44.90610599999999 12.2440395  -27.4756465 47.26728249999999 11.9856725  -30.86397 46.703471 -1.483642  -27.581201 45.234942 0.02349300000000004  -28.2669475 44.7735495 -1.912134  -28.9790205 44.3600445 -0.3829779999999999  -29.4661505 47.5783685 -1.077171  -27.094071 42.016618 0.717686  -26.381998 42.430123 -0.8114699999999999  -26.726283 49.091528 3.424572  -24.695181 46.876635 0.6866715  -23.967533 47.1748755 2.3979975  -25.472544 46.4109615 2.2371745  -25.94892 49.5572015 1.874069  -25.171557 50.022875 0.323566  -23.19017 47.640549 0.8474945  -22.713794 44.494309 1.2106  -30.826022 45.968537 -8.523495  -27.5440335 44.7325425 -6.8482775  -28.9871945 43.7896525 -7.068444  -30.1141935 46.69716 -6.622684  -29.382861 46.911427 -8.303328499999999  -29.402365 47.425783 -4.721873  -28.275366 44.5182755 -5.167633  -28.6710325 47.64005 -6.4025175  -27.9397 47.854317 -8.083162  -27.148367 41.610768 -5.613393  -26.834024 45.398072 -5.108136500000001  -27.536145 45.1347055 -3.5312495  -25.707025 42.4905645 -5.5538965  -26.409146 42.227198 -3.9770095  -24.967804 43.1069945 -3.917513  -21.7364365 47.7847705 -7.110625000000001  -23.1409565 50.5360335 -6.500153  -23.470491 50.1560835 -8.19055  -30.929185 46.358502 5.502256  -27.6071825 44.7126495 6.7626545  -28.2691015 44.552364 4.8089405  -28.9746245 43.917886 6.270795  -29.561743 47.1532655 5.994115499999999  -26.9016595 45.3471275 5.3008  -27.020064 41.47727 7.039334  -26.314541 42.111748 5.5774795  -25.609018 42.746226 4.115625  -29.71088 43.6406225 4.5883965  -28.492575 40.922743 3.674537  -27.0507965 41.8344845 3.895081  -27.7563195 41.2000065 5.356935500000001  -22.4677375 47.954536 -0.8185805  -23.972275 47.243129 -0.8868274999999999  -21.2684555 45.17479 -2.028974  -21.990888 44.860803 -0.3628989999999999  -20.4863505 45.57221 -0.294652  -26.619944 49.2380705 -0.173567  -25.828093 49.60355149999999 -1.8052045  -27.27648 48.818747 -2.3023375  -24.628811 46.8238055 -3.015598  -23.1244585 47.615104 -2.4279595  -22.034707 44.693614 -3.708998  -23.7535865 44.4533265 16.275724  -24.4907575 47.5271865 16.5146435  -25.1792335 46.652011 17.964
[...]
<PointData  Scalars="c_HbCO2"> 
<DataArray  type="Float64"  Name="c_HbCO2"  format="ascii">3.6197120885499299e-27  3.5835694250950336e-27  3.6816351421809103e-27  3.6403829629791158e-27  3.6417466666268430e-27  3.6291701619552435e-27  3.6241290056266932e-27  3.6225867925381084e-27  3.6385818461647095e-27  3.6167063739972600e-27  3.6214069407065322e-27  3.6164147197136880e-27  3.6229185157529351e-27  3.5949781949029037e-27  3.6251653113684197e-27  3.6073518389264093e-27  3.5947610168433644e-27  3.6315139513658483e-27  3.6341016916114395e-27  3.6069505722925027e-27  3.6199428691695948e-27  3.6885440350264050e-27  3.6290245044592912e-27  3.6432038345883749e-27  3.6239492693157803e-27  3.5893317072173456e-27  3.6539611579958427e-27  3.6185170990483847e-27  3.6405701060616651e-27  3.6477210614272469e-27  3.6234486095790422e-27  3.7013411359855598e-27  3.6473794150015284e-27  3.5883985288558299e-27  3.6487415071026337e-27  3.6180054282980630e-27  3.6407651100513434e-27  3.6246928763842410e-27  3.6507776787148914e-27  3.6128390484736454e-27  3.6209892124241512e-27  3.6268118364676826e-27  3.6337902263374538e-27  3.6061687409504212e-27  3.6223892864329602e-27  3.6015421169692560e-27  3.6953514164313996e-27  3.6042207388802626e-27  3.6035861056461565e-27  3.6824673374730931e-27  3.6416172470002703e-27  3.6139790338810874e-27  3.6342623294395700e-27  3.6331260270326019e-27  3.6327701404627144e-27  3.6235548434595680e-27  3.5989071947036887e-27  3.6913558432805078e-27  3.6170294887977420e-27  3.6384100466924309e-27  3.6431078129058759e-27  3.6018000751854180e-27  3.6463695831580668e-27  3.6346877941222057e-27  3.6086812006691558e-27  3.6209708711458619e-27  3.6283732658553236e-27  3.6706179967689030e-27  3.6132248868599640e-27  3.6322223262586837e-27  3.6261452400369336e-27  3.5948422788327243e-27  3.6312711407062602e-27  3.6171088604639016e-27  3.6669472338922407e-27  3.6146370870012125e-27  3.6136490443562112e-27  3.6900446546023885e-27  3.6226055746068796e-27  3.6427433074640366e-27  3.6255506462619972e-27  3.5984504977092044e-27  3.6252075492422951e-27  3.6689235239695301e-27  3.6066837438749041e-27  3.6255252363209731e-27  3.6236026246453227e-27  3.6434382819216821e-27  3.5879054110696090e-27  3.6202020711460093e-27  3.5963953184252815e-27  3.6553515825078391e-27  3.6558454814124518e-27  3.6218631899437202e-27  3.6381590821957129e-27  3.6240595979362601e-27  3.6440793490789184e-27  3.6170123622727780e-27  3.5778014717700610e-27  3.6219858371857270e-27  3.5993167849235754e-27  3.6428510591343705e-27  3.6258283134965766e-27  3.6202593573509910e-27  3.6544853298945347e-27  3.6077541003316369e-27  3.6342112309329628e-27  3.6296796882045534e-27  3.6174884700208930e-27  3.6700497147037557e-27  3.6067877214341269e-27  3.6342440940051439e-27  3.6243828879371260e-27  3.6683726928091238e-27  3.6251869351594804e-27  3.5790696400411385e-27  3.6533074538125661e-27  3.6114457212440925e-27  3.6219210528041956e-27  3.6238462619712886e-27  3.6317348355236231e-27  3.6236781225851938e-27  3.6320099016342227e-27  3.6270343572575593e-27  3.6967893994043841e-27  3.6388672302619385e-27  3.6097638646977085e-27  3.6292217317820912e-27  3.6224385856521117e-27  3.6562382546622770e-27  3.6196198914735729e-27  3.6044225300109982e-27  3.6051642361353615e-27  3.6583953313982003e-27  3.6609431549819503e-27  3.6134637500497921e-27  3.5999607488394597e-27  3.6608728851886633e-27  3.6415520048568965e-27  3.5879544752115642e-27  3.6260328292826129e-27  3.6084244058554050e-27  3.6340648154988759e-27  3.6107407810473520e-27  3.6189545277484804e-27  3.6372961786294388e-27  3.6074960324488961e-27  3.6236339856165189e-27  3.6286144788459031e-27  3.6368933523404812e-27  3.6680525604254957e-27  3.5900579138166240e-27  3.6174640356106784e-27  3.5913504714243364e-27  3.6981267070286741e-27  3.6465309937449007e-27  3.6079581943420995e-27  3.6531996749171567e-27  3.6264886859044129e-27  3.6300031589627017e-27  3.5897385928708237e-27  3.6250369528757789e-27  3.6277301823407971e-27  3.5945331240390534e-27  3.6120168781232580e-27  3.6245849654964201e-27  3.6122069345431351e-27  3.6226940241864383e-27  3.6282946327852135e-27  3.6912223313584382e-27  3.6477790378844916e-27  3.6564375134474827e-27  3.6278912785497089e-27  3.5975903148988758e-27  3.6254938590625501e-27  3.6245641375190003e-27  3.6636565878006005e-27  3.6237974409953750e-27  3.6253120776811217e-27  3.6211636012303505e-27  3.6236095026315329e-27  3.5967600187257228e-27  3.6224838379034979e-27  3.6226922619718001e-27  3.6498725804919358e-27  3.6478658661118116e-27  3.6277084607578537e-27  3.6582989894022704e-27  3.6262811858973583e-27  3.7145973656711927e-27  3.6476754079358518e-27  3.6487437566965812e-27  3.6195731748362427e-27  3.6573348096514538e-27  3.6046085913766584e-27  3.6187384605818433e-27  3.6219829139851105e-27  3.6202023729473141e-27  3.6098371923679775e-27  3.6239669456301762e-27  3.6314646916453647e-27  3.6937632674280324e-27  3.6362217953314674e-27  3.6647518115564234e-27  3.5886324250655802e-27  3.6115190418569608e-27  3.6501827242624803e-27  3.6138043833073083e-27  3.6146510530113157e-27  3.6089015548293942e-27  3.6182406655807824e-27  3.6261742023371033e-27  3.5835914184484181e-27  3.6459895949576553e-27  3.6460550280522093e-27  3.6412269288484863e-27  3.5856127037627012e-27  3.6265657320624629e-27  3.6988550629184236e-27  3.6499721076324090e-27  3.6337946025515462e-27  3.6354325786877685e-27  3.6300673186624964e-27  3.6363327153743110e-27  3.6009412914390188e-27  3.6827312404081367e-27  3.5992638917528903e-27  3.6315285854270299e-27  3.6198694296650482e-27  3.7184129258104551e-27  3.6840462017486219e-27  3.6471944046217748e-27  3.6383811884959335e-27  3.6468914849832115e-27  3.6159429844342033e-27  3.5985755275376509e-27  3.6848255414166977e-27  3.6514703206643363e-27  3.6117214423970157e-27  3.6354945421262938e-27  3.6435926303957119e-27  3.5965944736941702e-27  3.6299900119069635e-27  3.6181157677836836e-27  3.6854173695364255e-27  3.6321701992338037e-27  3.6553171458450340e-27  3.6252781843782191e-27  3.6722094336135086e-27  3.6065677378087064e-27  3.6273302592480124e-27  3.6365459768690916e-27  3.7055572743278737e-27  3.6690262561647304e-27  3.6060548018138241e-27  3.6319980120501016e-27  3.6421595409232087e-27  3.6334648006040179e-27  3.6233086569044068e-27  3.5565030002713654e-27  3.6370367820280970e-27  3.6215264604098885e-27  3.7141058488619401e-27  3.6835007251647603e-27  3.6342731495893892e-27  3.6621349895938961e-27  3.6438012006070759e-27  3.6503699470981471e-27  3.6329419095603267e-27  3.6932202050838881e-27  3.6347464975663029e-27  3.6057531788251662e-27  3.6363860610292685e-27  3.6774963259533083e-27  3.5866602620333686e-27  3.5923076916654451e-27  3.6157545104965082e-27  3.6440696864567636e-27  3.6145892148777497e-27  3.6251653797287706e-27  3.6125198610668157e-27  3.6213315246805638e-27  3.6304186779188436e-27  3.6418541481940925e-27  3.6651718834680340e-27  3.6273642680577234e-27  3.6411278644698950e-27  3.6247560067698482e-27  3.6382092488559952e-27  3.6603063279036104e-27  3.6315334714633286e-27  3.6304245259636370e-27  3.6169212671248233e-27  3.7025306633805775e-27  3.6385107366282655e-27  3.6103966366248544e-27  3.6052854363816586e-27  3.6246392309841345e-27  3.6198012440960979e-27  3.6229804680151917e-27  3.6196326079601062e-27  3.6227569200828691e-27  3.6159000884389610e-27  3.6162203856876635e-27  3.6204128717722193e-27  3.6206949665658250e-27  3.6674766788452810e-27  3.6233146185839393e-27  3.7159161706896540e-27  3.6394187968117369e-27  3.6474144270740091e-27  3.6161397430451571e-27  3.6391072812206532e-27  3.6076554830133700e-27  3.6009576335527921e-27  3.6359993919816619e-27  3.5935026737932220e-27  3.6212981035031441e-27  3.6249900989068579e-27  3.6490967536257819e-27  3.6425173158064106e-27  3.6142768732565718e-27  3.6346353997342787e-27  3.5953826730778032e-27  3.6128135973210958e-27  3.6211398274648323e-27  3.6219182396808348e-27  3.5962108919335031e-27  3.6109559694281276e-27  3.6456294366561715e-27  3.6206058807467554e-27  3.6243016656773579e-27  3.6148577928598442e-27  3.5921908879514571e-27  3.6304134539326701e-27  3.6294474852055115e-27  3.6083042523759197e-27  3.6224947553293920e-27  3.6278854949394869e-27  3.6005738748676280e-27  3.6332721434042176e-27  3.6350651381829268e-27  3.5853344986330397e-27  3.6502628386717995e-27  3.6030628724837475e-27  3.6130006743780122e-27  3.5968336656787509e-27  3.6452886409212685e-27  3.6072236290082175e-27  3.6876345294661962e-27  3.6186254896380258e-27  3.6428248834621642e-27  3.6035373179628911e-27  3.6345027278907730e-27  3.6546714590584423e-27  3.6431382254531759e-27  3.6319756957946322e-27  3.6216009448065034e-27  3.6260610275304566e-27  3.6759976598365806e-27  3.6539100531201461e-27  3.7204543901276073e-27  3.6348090932763000e-27  3.6348485144914566e-27  3.6074122476340584e-27  3.6097915633309653e-27  3.6077540973360427e-27  3.6005901451063890e-27  3.6402270856509682e-27  3.6419210478174131e-27  3.6549112067746031e-27  3.6056444856877440e-27  3.6142714657114539e-27  3.5981336187836409e-27  3.6237653256379392e-27  3.6266710488623938e-27  3.6093205748875490e-27  3.6268580965077313e-27  3.6210277651928833e-27  3.6254609166861793e-27  3.6348727134804255e-27  3.6028893781721706e-27  3.6928719074948249e-27  3.6320556129798817e-27  3.6099386468543772e-27  3.6411021652967173e-27  3.6806243764265420e-27  3.6792734550475595e-27  3.6025868399461581e-27  3.6679139800430251e-27  3.6709588702779409e-27  3.6041391031460720e-27  3.6275841131919376e-27  3.6318568921808173e-27  3.6300535419763539e-27  3.6311284171532948e-27  3.6195805054195861e-27  3.6481208861399061e-27  3.7625073713690657e-27  3.6285528294920254e-27  3.6574545836328549e-27  3.6013294454681515e-27  3.6364230185843797e-27  3.5986779308190403e-27  3.6578252214576150e-27  3.6275548727745434e-27  3.6459225944657621e-27  3.6800225920068104e-27  3.7956626298319378e-27  3.6355949619406029e-27  3.6554982164742495e-27  3.7211168538140910e-27  3.6111279287528912e-27  3.6464148162492352e-27  3.6302835895954773e-27  3.6190073027684785e-27  3.6043497674248635e-27  3.5974679921846495e-27  3.6267640242805889e-27  3.6381690312517349e-27  3.6334073097473846e-27  3.7160789679052368e-27  3.6538598808995373e-27  3.6504094182355909e-27  3.6260284784230741e-27  3.6354972861928468e-27  3.6861287228570945e-27  3.6401499492313188e-27  3.6129081221689035e-27  3.6394738130819771e-27  3.7273490589916344e-27  3.6358486081855482e-27  3.6400188363911972e-27  3.6195994707410016e-27  3.6198860946345632e-27  3.6240630458909197e-27  3.6463604625076879e-27  3.6356614943772794e-27  3.5851076431539503e-27  3.6240418279627848e-27  3.7237648649323649e-27  3.6502007281825155e-27  3.6156657659588125e-27  3.6958006409328755e-27  3.6354481221895542e-27  3.7259846180100548e-27  3.6578619111296967e-27  3.6234256611842536e-27  3.6352488211252075e-27  3.6154462272070093e-27  3.5981270365928412e-27  3.6262856511828017e-27  3.6368128239724728e-27  3.6184653933998242e-27  3.6496504644602226e-27  3.6222792953097893e-27  3.6033183913538922e-27  3.6508297096229052e-27  3.7598654756646473e-27  3.6258848639650754e-27  3.6044629742046702e-27  3.6568777633585369e-27  3.6571874460922525e-27  3.6214562401501196e-27  3.5966726005791126e-27  3.5911277410302526e-27  3.5988499873328977e-27  3.6479526718494193e-27  3.6229666953369791e-27  3.6400114666511283e-27  3.6215310955558871e-27  3.5865845417285738e-27  3.5870177295390811e-27  3.6385344105727155e-27  3.6246652682300744e-27  3.6261199064937662e-27  3.6099714039601479e-27  3.6338085000144936e-27  3.6304080161156253e-27  3.6246383301502484e-27  3.6522479483851372e-27  3.5897852014308643e-27  3.6447819677143305e-27  3.6131064997409600e-27  3.6363422049734441e-27  3.5977927358126706e-27  3.6520428529115450e-27  3.6300310303017861e-27  3.5937720816806713e-27  3.6265706279475790e-27  3.6233756189450928e-27  3.6020015992061967e-27  3.6264304767451427e-27  3.5937719369084200e-27  3.6205430317483248e-27  3.6247131614575645e-27  3.6699758136059275e-27  3.6344765474790401e-27  3.6332975268143385e-27  3.6114027898969460e-27  3.6655385308667333e-27  3.6314405165347556e-27  3.6163753172841644e-27  3.6198909100728824e-27  3.6384884541719256e-27  3.6291719686634937e-27  3.6155571710282553e-27  3.6587461801627657e-27  3.6429523682967971e-27  3.7436222765082598e-27  3.7418131037674830e-27  3.6282861969083304e-27  3.6330621385400011e-27  3.6522416509817047e-27  3.6125112692521021e-27  3.6226997814512541e-27  3.5906163938334502e-27  3.6250033070126385e-27  3.6689838038393465e-27  3.6471892182175505e-27  3.6268855338772832e-27  3.6019308645652735e-27  3.6240878845749567e-27  3.6091638626418854e-27  3.6026916718560260e-27  3.6218594270354469e-27  3.6234980980880562e-27  3.5999857407863500e-27  3.6567980964131770e-27  3.6367659388447681e-27  3.5868931830414579e-27  3.6376384569896409e-27  3.6186609584719424e-27  3.6222033019435515e-27  3.6129963392238084e-27  3.6246093706934449e-27  3.6138971257762583e-27  3.7022177190276229e-27  3.6826008648994381e-27  3.6030616824322150e-27  3.6370408799989442e-27  3.6440316096753333e-27  3.6023058307975908e-27  3.6577745857909585e-27  3.6334366550907205e-27  3.5948134251245871e-27  3.6231609767376282e-27  3.6264919662226116e-27  3.5940450728120450e-27  3.6187754789900406e-27  3.6284107169072452e-27  3.6197960580577333e-27  3.6299087365920543e-27  3.5989042411552986e-27  3.6284319167546475e-27  3.6105109715605063e-27  3.6347175939682971e-27  3.6319167691954989e-27  3.6092992008327218e-27  3.6507074239626917e-27  3.5975688849089348e-27  3.6188236704381229e-27  3.6443805626447163e-27  3.6159630061606485e-27  3.6454902260337750e-27  3.6204298823824223e-27  3.6282231400129497e-27  3.6250260741251033e-27  3.6341026478071878e-27  3.5826775345282133e-27  3.6175906829083794e-27  3.6171802053836978e-27  3.5922564849983977e-27  3.6197980470746134e-27  3.6388986170424254e-27  3.5933910862211775e-27  3.6401052966862986e-27  3.5766414796167178e-27  3.6338714156432128e-27  3.6210182875821251e-27  3.6396660647260053e-27  3.6188087842483901e-27  3.6298326334105115e-27  3.6591499418496468e-27  3.5627593737985967e-27  3.5813986546531674e-27  3.6056722436238923e-27  3.6301265262795946e-27  3.6325621553419100e-27  3.6162408083682924e-27  3.6165086008205271e-27  3.6284248354304058e-27  3.6018286262279628e-27  3.6215355995996471e-27  3.6170177549797463e-27  3.6080867943354470e-27  3.6158041793055189e-27  3.6356071737118739e-27  3.6108837932823499e-27  3.6178034882956652e-27  3.6213685170028203e-27  3.6158970940473890e-27  3.6496962196987776e-27  3.6027382838184749e-27  3.6175680557389985e-27  3.6381595243795360e-27  3.6505347670793765e-27  3.6403889338301502e-27  3.6438875338748004e-27  3.6337678696342125e-27  3.6524790351663795e-27  3.6065187304080895e-27  3.6128380661362651e-27  3.5897936455550111e-27  3.6811237702113860e-27  3.6007799680795122e-27  3.5971018924462644e-27  3.6341289371649662e-27  3.6118693885322102e-27  3.6243429418495639e-27  3.6125766485560246e-27  3.6082454348325178e-27  3.6125027575818896e-27  3.6234213118085282e-27  3.6005359037248875e-27  3.6167780867507618e-27  3.6123749901251115e-27  3.6457216148607738e-27  3.6024786674164897e-27  3.6197129142325573e-27  3.6368836117720379e-27  3.6341387067382261e-27  3.5873243765723558e-27  3.6431604875719138e-27  3.6204510034451175e-27  3.5850008091996950e-27  3.5485332263502178e-27  3.6564372231294483e-27  3.6263200938372574e-27  3.5899953795283225e-27  3.5641010332079751e-27  3.6274137152127938e-27  3.6193994638431985e-27  3.6404260013617011e-27  3.6241501310313341e-27  3.6113386706445100e-27  3.6172034170490501e-27  3.6222342216668926e-27  3.6140297118525400e-27  3.6180561722897353e-27  3.6367861886027321e-27  3.6164204984592409e-27  3.6231188745379554e-27  3.6094067328285583e-27  3.6220598477559142e-27  3.6282827090627010e-27  3.5952108709965297e-27  3.5845559916158924e-27  3.6322777797923553e-27  3.6133738871154092e-27  3.5982591576322699e-27  3.6152954750507788e-27  3.6141344229198733e-27  3.6456409252659336e-27  3.6268151939060802e-27  3.5991844338114017e-27  3.6159620400324442e-27  3.5895162075393255e-27  3.6626368063347366e-27  3.6101392070768447e-27  3.6107898918187969e-27  3.5987659141516483e-27  3.6255216946344237e-27  3.6218892489949339e-27  3.6473507476225419e-27  3.6171378622458802e-27  3.6019946217760874e-27  3.6058203917475556e-27  3.6267334117308380e-27  3.6279851832620351e-27  3.6790526300794359e-27  3.6143415061913535e-27  3.6326514311604872e-27  3.6274047144308756e-27  3.6447218849527241e-27  3.5730715912036897e-27  3.6249328443367322e-27  3.5947510547239139e-27  3.6215710153414553e-27  3.6177374065688659e-27  3.6201157501758477e-27  3.6252533633675086e-27  3.6142242759367070e-27  3.6309868632939541e-27  3.6354358016766185e-27  3.6271254027189727e-27  3.6021659090070505e-27  3.6032962268453067e-27  3.6061258021276034e-27  3.6104415047291078e-27  3.6133651474943868e-27  3.6270337714811449e-27  3.5746532426729489e-27  3.5896919420265035e-27  3.6279138414481879e-27  3.6248228026853907e-27  3.6441628601895923e-27  3.5878757538086089e-27  3.6340767068751516e-27  3.6410466526489429e-27  3.6266370493110553e-27  3.6159869896857854e-27  3.5904036956961697e-27  3.6162230841060982e-27  3.6287087352432340e-27  3.6085634261119957e-27  3.6151818844201608e-27  3.5835867502970528e-27  3.6255454848769877e-27  3.6234428944870242e-27  3.6236978566433499e-27  3.6090099456889627e-27  3.6240683299006967e-27  3.5958673905399375e-27  3.6241690666472088e-27  3.6065703971236450e-27  3.6275655104132139e-27  3.6032037527203035e-27  3.6394269683640460e-27  3.6216196818685533e-27  3.6322647337699598e-27  3.6218138143499564e-27  3.5969372020499071e-27  3.6198432325032655e-27  3.6192696161152401e-27  3.6125180993581093e-27  3.6392827441832259e-27  3.6332542771612419e-27  3.6121430700101885e-27  3.5906550269296871e-27  3.6126150455861145e-27  3.6188588992824234e-27  3.6366752114799090e-27  3.6062021858370253e-27  3.6269058060509897e-27  3.6141758157956412e-27  3.6305728854584669e-27  3.6261034283701680e-27  3.6590359606181630e-27  3.6037969870725113e-27  3.6160018774094091e-27  3.6110335554679355e-27  3.6505291453081087e-27  3.5473580755896085e-27  3.6323374527364236e-27  3.6268409539204477e-27  3.6001642871467889e-27  3.6174031918784418e-27  3.6106746595620563e-27  3.6180641197123753e-27  3.6347564962421383e-27  3.6043259810852384e-27  3.5857117564021971e-27  3.6156444157746309e-27  3.6165162350357853e-27  3.6376443696588040e-27  3.6175080828339363e-27  3.6630790549971560e-27  3.6148100273752100e-27  3.5726682924288717e-27  3.6214072663429057e-27  3.5834273482306525e-27  3.6269132729627503e-27  3.6327279334814827e-27  3.5910240159904909e-27  3.6188461811858173e-27  3.6748061915043963e-27  3.5710130542201453e-27  3.6288618702468367e-27  3.6259803768823329e-27  3.6419930305636167e-27  3.6167905309944242e-27  3.6087612981188947e-27  3.6402384787470590e-27  3.6205181221338136e-27  3.6155705771355477e-27  3.6342611291457143e-27  3.6156481045970685e-27  3.6029656240212279e-27  3.6095638867086197e-27  3.5909868443884848e-27  3.6545922217103269e-27  3.5973457147703559e-27  3.6236509642167472e-27  3.6488633946656048e-27  3.6065188100299417e-27  3.5714747186532204e-27  3.6202497913006060e-27  3.6209753097942855e-27  3.5757747793817021e-27  3.6227585481820135e-27  3.6292138326218973e-27  3.6197925376986785e-27  3.6456903665209242e-27  3.5484441214729812e-27  3.6263033153188351e-27  3.5962048001495686e-27  3.6240714746163007e-27  3.6326791786359598e-27  3.6172043088572511e-27  3.6064702643849214e-27  3.6353542774892208e-27  3.5753027057205336e-27  3.6238692323202809e-27  3.6335498929118748e-27  3.6221490930091652e-27  3.5791628272084111e-27  3.5946425365578673e-27  3.6118201837334213e-27  3.6040797649204113e-27  3.6218958909302404e-27  3.6524650377168849e-27  3.6155849429713106e-27  3.6554904186941425e-27  3.5932426652879350e-27  3.6431240933838972e-27  3.6523459816353452e-27  3.6124202484797105e-27  3.6345966915437326e-27  3.61480657081