<?xml version="1.0"?>
<VTKFile type="UnstructuredGrid"  version="0.1"  >
<UnstructuredGrid>
<Piece  NumberOfPoints="4653" NumberOfCells="20561">
<Points>
<DataArray  type="Float64"  NumberOfComponents="3"  format="ascii">52.226008 18.20858 -8.768793000000001  51.4440925 18.3471485 -8.24542825  51.99280299999999 18.88639975 -8.628550000000001  52.226008 18.4844665 -8.06584625  52.226008 18.760353 -7.3628995  51.2108875 19.02496825 -8.10518525  51.4440925 18.623035 -7.542481500000001  51.99280299999999 19.16228625 -7.92560325  51.759598 19.5642195 -8.488306999999999  50.662177 18.485717 -7.722063500000001  52.226008 19.312126 -5.957006  51.2108875 19.57674125 -6.69929175  51.4440925 19.174808 -6.136588  51.4440925 18.8989215 -6.83953475  50.428972 19.16353675 -7.5818205  50.662177 18.7616035 -7.01911675  50.662177 19.03749 -6.31617  50.428972 19.43942325 -6.878873749999999  50.195767 19.8413565 -7.441577499999999  51.99280299999999 19.71405925 -6.51970975  51.2108875 19.30085475 -7.4022385  51.759598 20.1159925 -7.082413499999999  50.9776825 19.9786745 -7.261995499999999  52.226008 19.0362395 -6.65995275  51.99280299999999 19.43817275 -7.222656499999999  51.293188 20.919859 -8.207820999999999  50.7444775 20.38060775 -7.824699249999999  51.526393 20.51792575 -7.645117249999999  50.9776825 19.702788 -7.96494225  51.759598 19.840106 -7.78536025  51.526393 20.24203925 -8.348063999999999  49.098346 18.762854 -6.675334  49.64705650000001 19.30210525 -7.05845575  49.8802615 18.900172 -6.495752  49.8802615 18.6242855 -7.19869875  44.141456 31.037504 -14.973484  42.56218925 30.301231 -15.457732  43.06036 29.453675 -15.6520435  41.4266435 29.6927015 -14.5186475  38.711831 28.347899 -14.063811  39.84737675 28.9564285 -15.0028955  40.3455475 28.1088725 -15.197207  41.979264 27.869846 -16.330603  41.48109325 28.717402 -16.1362915  40.9829225 29.564958 -15.94198  43.28222049999999 29.51754675 -14.94037725  40.567408 28.17274425 -14.48554075  42.422985 27.9975895 -14.9072705  42.2011245 27.93371775 -15.61893675  43.9195955 30.97363225 -15.68515025  43.69773499999999 30.9097605 -16.3968165  42.34032875 30.23735925 -16.16939825  42.8384995 29.38980325 -16.36370975  43.254014 30.782017 -17.820149  42.11846825 30.1734875 -16.8810645  42.616639 29.3259315 -17.075376  43.4758745 30.84588875 -17.10848275  40.704514 24.957675 -14.841057  41.341889 26.4137605 -15.58583  41.5637495 26.47763225 -14.87416375  39.7081725 26.652787 -14.452434  47.403933 28.488107 -8.791752000000001  46.14456025 27.926611 -7.607333000000001  46.951799 29.28927375 -8.4074405  47.40464925000001 28.734985 -7.705777  47.4053655 28.981863 -6.619802  45.69242625 28.72777775 -7.223021500000001  46.1452765 28.173489 -6.521358  46.95251525 29.53615175 -7.3214655  46.499665 30.0904405 -8.023129000000001  44.8851875 27.365115 -6.422914  47.406798 29.475619 -4.447852  45.69385875 29.22153375 -5.051071500000001  46.146709 28.667245 -4.349408  46.14599275 28.420367 -5.435383  44.4330535 28.16628175 -6.038602500000001  44.88590375 27.611993 -5.336939  44.88662 27.858871 -4.250964  44.43376975 28.41315975 -4.9526275  43.9809195 28.9674485 -5.654291000000001  46.95394775 30.02990775 -5.1495155  45.6931425 28.97465575 -6.1370465  46.5010975 30.5841965 -5.851179  45.2410085 29.7758225 -5.752735  47.40608175 29.228741 -5.533827  46.9532315 29.78302975 -6.2354905  45.595397 31.692774 -7.254506  44.78815825 30.33011125 -6.4543985  46.04824725 31.13848525 -6.552842500000001  45.24029225 29.5289445 -6.838710000000001  46.50038125 30.3373185 -6.937154  46.047531 30.89160725 -7.6388175  42.366442 26.242123 -4.054076  43.17368075 27.60478575 -4.8541835  43.626531 27.050497 -4.15252  43.62581475 26.803619 -5.238495  44.143803 32.918944 -10.18174  41.58299024999999 33.79334275 -9.845958  40.448097 32.666319 -10.2498635  42.57274025 32.65529675000001 -9.4714595  43.154053 34.05699 -10.5562385  41.437847 31.528273 -9.875364999999999  42.164303 35.195036 -10.930737  38.731891 30.137602 -9.568989999999999  39.86678424999999 31.26462575 -9.165084499999999  41.0016775 32.3916495 -8.761179  43.43084325 33.91965525000001 -9.81189625  42.44109324999999 35.05770125 -10.18639475  42.7178835 34.9203665 -9.442052500000001  41.8597805 33.656008 -9.101615750000001  43.92571825 33.35063225 -9.624647  43.7076335 33.7823205 -9.067553999999999  42.3546555 33.086985 -8.9143665  43.2127585 34.3513435 -9.25480325  43.271464 34.645697 -7.953368  42.13657075 33.51867325 -8.3572735  42.99467375 34.78303175 -8.69771025  43.48954875 34.21400875 -8.510460999999999  43.278764 33.070907 -13.010139  41.74156925 32.5651125 -12.89411025  42.14204575 32.33758075 -12.14985175  41.462954 33.09614475 -12.37425975  39.647144 33.1213825 -11.7383805  39.92575925 32.59035025 -12.258231  40.32623575 32.3628185 -11.5139725  41.0053275 31.6042545 -11.2895645  40.604851 31.83178625 -12.033823  40.2043745 32.059318 -12.7780815  43.00014875 33.60193925 -12.4902885  42.7215335 34.1329715 -11.970438  41.8634305 32.868613 -11.63000125  41.18433874999999 33.627177 -11.85440925  41.58481525 33.39964525 -11.11015075  40.90572349999999 34.15820925 -11.33455875  39.86860925 30.87092825 -10.42927725  39.18951749999999 31.62949225 -10.65368525  42.44291825 34.66400375 -11.4505875  39.46813275 31.09846 -11.17353575  37.930938 30.5926655 -11.057507  37.129985 31.047729 -12.546024  38.66717975 31.5535235 -12.66205275  38.3885645 32.08455575 -12.14220225  42.152908 33.189598 -16.04939  40.3401875 31.96825 -17.8576345  38.605228 31.935419 -17.241139  40.8961225 32.085894 -16.3213845  41.596973 33.071954 -17.58564  39.161163 32.05306299999999 -15.704889  41.041038 32.95431 -19.12189  36.169418 30.916528 -15.360388  37.9043775 30.949359 -15.9768835  39.639337 30.98219 -16.593379  39.083402 30.864546 -18.129629  37.125766 28.774782 -17.137368  38.3825515 29.878486 -16.8653735  36.647592 29.845655 -16.248878  51.297002 21.901138 -4.995771  50.480692 21.763376 -5.28019  50.47473775 21.56721175 -5.99413225  50.747338 21.116567 -5.41566175  50.197674 20.331996 -5.8355525  49.931028 20.978805 -5.70008075  49.92507375 20.78264075 -6.414023  49.6524735 21.2332855 -6.9924935  49.65842775 21.42944975 -6.27855125  49.664382 21.625614 -5.564609  50.75329225 21.31273125 -4.7017195  49.93698225 21.17496925 -4.9861385  50.20362824999999 20.52816025 -5.12161025  50.2095825 20.7243245 -4.407668  51.02440175 22.35178275 -5.5742415  50.2021375 22.0178565 -6.57260275  50.7518015 22.8024275 -6.152712  50.20809175 22.21402075 -5.8586605  50.206601 23.703717 -7.309653  49.9354915 22.6646655 -6.437131  50.47920125 23.25307225 -6.7311825  49.92953725 22.46850125 -7.15107325  49.381364 20.194234 -6.1199715  49.10430024999999 18.95901825 -5.961391750000001  49.64801 19.547425 -6.255443250000001  49.38731825 20.39039825 -5.40602925  49.65396425 19.74358925 -5.541501  49.1102545 19.1551825 -5.2474495  49.37540975 19.99806975 -6.833913750000001  49.122163 19.547511 -3.819565  49.3932725 20.5865625 -4.692087  49.11620875 19.35134675 -4.53350725  49.6599185 19.9397535 -4.82755875  49.66587275 20.13591775 -4.1136165  47.410649 26.850838 -12.933014  45.277615 27.19790525 -13.25149725  45.692871 26.415529 -13.48217775  46.146473 26.091776 -12.647309  44.882297 25.332714 -12.361604  44.01343900000001 26.43884325 -12.96579225  44.428695 25.656467 -13.19647275  43.975093 25.98022 -14.0313415  43.559837 26.76259625 -13.800661  43.144581 27.5449725 -13.5699805  45.731217 26.87415225 -12.4166285  44.46704099999999 26.11509025 -12.1309235  44.051785 26.8974665 -11.900243  43.598183 27.2212195 -12.73511175  46.957047 27.174591 -13.76788275  46.503445 27.498344 -14.6027515  44.824013 27.52165825 -14.086366  45.239269 26.739282 -14.3170465  45.596241 28.14585 -16.272489  44.370411 27.84541125 -14.92123475  44.785667 27.063035 -15.15191525  46.049843 27.822097 -15.43762025  42.353945 23.81459 -11.790194  41.938689 24.59696625 -11.5595135  42.749263 25.67978125 -12.68008725  43.202865 25.35602825 -11.8452185  42.334007 26.4621575 -12.44940675  42.787609 26.1384045 -11.614538  41.523433 25.3793425 -11.328833  43.164519 24.897405 -12.91076775  43.618121 24.573652 -12.075899  40.692921 26.944095 -10.867472  41.108177 26.16171875 -11.0981525  41.918751 27.24453375 -12.21872625  42.372353 26.92078075 -11.3838575  45.73280425 28.42877225 -8.24879  45.28067025 29.229939 -7.864478500000001  44.4734315 27.86727625 -7.064371  44.0616755 28.3694375 -7.705828  44.37640225 30.8322725 -7.095855500000001  44.0212975 28.668443 -6.6800595  43.5691635 29.46960975 -6.295748000000001  43.1574075 29.971771 -6.937205000000001  44.82853625 30.03110575 -7.480167  43.6095415 29.17060425 -7.3215165  41.954686 26.74428425 -4.695533  43.21405875 27.30578025 -5.879952  42.76192475 28.106947 -5.4956405  41.54293 27.2464455 -5.33699  40.719418 28.250768 -6.619904  41.131174 27.74860675 -5.978447  42.35016874999999 28.60910825 -6.1370975  42.80230275 27.8079415 -6.521409  41.93841275 29.1112695 -6.7785545  42.39054675 28.31010275 -7.162866  44.13264 28.468555 -19.438402  41.56182075 28.632305 -20.52049625  40.42984749999999 28.151615 -19.5206275  42.55829775 27.6471225 -19.82673675  43.136163 29.4537375 -20.1321615  41.4263245 27.1664325 -18.826868  42.139686 30.43892 -20.825921  38.720009 25.86431 -18.215334  39.85198225 26.345 -19.21520275  40.9839555 26.82569 -20.2150715  43.413217 28.790775 -20.4793835  42.41674 29.7759575 -21.173143  42.693794 29.112995 -21.520365  41.83887475 27.9693425 -20.86771825  43.9114555 28.29818375 -20.13250375  43.690271 28.1278125 -20.8266055  42.33711325 27.47675125 -20.5208385  43.1920325 28.62040375 -21.17348525  43.247902 27.78707 -22.214809  42.11592875 27.30638 -21.21494025  42.970848 28.4500325 -21.867587  43.4690865 27.95744125 -21.52070725  44.37330925000001 27.34880625 -15.914631  43.7877525 28.007848 -16.301546  44.009613 28.07171975 -15.58987975  42.56482075 27.21080425 -15.943688  42.78668125 27.274676 -15.23202175  43.1503775 26.5517625 -15.556773  45.23254475 28.8687635 -15.9477
[...]
<PointData  Scalars="c_HbCO2"> 
<DataArray  type="Float64"  Name="c_HbCO2"  format="ascii">6.4216593098089675e-27  -1.2576496392410686e-28  1.7725432071443387e-27  1.1858549043824508e-26  7.7850575165113826e-27  4.4304554473086336e-27  4.6537352802921873e-27  1.8257780974669361e-27  3.9383048221701337e-27  3.7301295751611503e-27  6.4361134868940679e-27  4.1499240629712049e-27  4.9322521738548867e-27  1.4316200034773694e-28  3.9639521028766129e-27  4.0319764653866277e-27  3.6244083199213805e-27  3.0581552978567908e-27  3.4263713500582640e-27  1.0698276593624663e-28  4.2239559466689301e-27  4.4682013865291397e-27  3.9790558384370465e-27  1.2009653391853103e-26  1.7215236875422702e-27  3.8773452414984799e-27  4.0884393063109092e-27  3.1990065907362921e-27  2.5950579079896612e-27  2.9259121886566164e-27  4.1705145727562493e-27  3.2236315108854243e-27  3.7634207792177626e-27  3.7020822390444636e-27  3.1078947062438450e-27  3.6089254537405571e-27  3.5506991986467345e-27  3.6368476011331896e-27  3.6358497399886846e-27  3.6388333442938788e-27  3.6633874816005600e-27  3.5650301966253012e-27  3.6265869975199684e-27  3.6480866973237023e-27  3.6135439104790824e-27  3.6138114405608811e-27  3.4909123133533490e-27  3.6160773765878886e-27  3.5826429542792497e-27  3.7267068818916907e-27  3.5899817316164482e-27  3.5644068364485858e-27  3.6483334628483432e-27  3.6221387853426135e-27  3.6104048419810691e-27  3.7046323726457699e-27  3.6168538102243483e-27  3.3600223945888339e-27  3.8223717886216169e-27  3.8176735844730405e-27  3.5890478941884306e-27  3.6412820988371793e-27  3.5894164205248229e-27  3.6602667878322950e-27  3.6245267038573719e-27  3.6458140477641791e-27  3.6655927973906060e-27  3.6486572307483079e-27  3.6038124476760254e-27  3.6158554384186953e-27  3.6226715935944683e-27  3.6667570805795864e-27  3.5708220372896584e-27  3.5578180227578892e-27  3.6088117247711231e-27  3.6185366225289893e-27  3.6089615836137291e-27  3.6100113592680834e-27  3.6241895574919326e-27  3.6193406073312800e-27  3.6335320345676888e-27  3.6565385679248760e-27  3.6145709599211133e-27  3.6296457832896248e-27  3.6029005496527097e-27  3.6056653838527147e-27  3.6395393100572908e-27  3.6145848778217547e-27  3.6821036304283922e-27  3.6757890279511585e-27  3.3542126538117176e-27  3.6882083023217334e-27  3.5635027411046659e-27  3.6722986668630409e-27  3.6324262419576843e-27  3.6404530976869303e-27  3.6128735588427601e-27  3.6519368860134934e-27  3.6484557971685235e-27  3.5552411764219354e-27  3.4366219240202207e-27  3.6177845565677266e-27  3.6344829433395964e-27  3.5875238928541333e-27  3.4904802379152474e-27  3.6033324223370256e-27  3.8997684250677287e-27  3.4819708001372155e-27  3.6165988436345893e-27  3.6361108070567809e-27  3.7273246071096119e-27  3.5962997222874041e-27  3.5549476879692436e-27  3.5181998977857465e-27  3.6039734278905246e-27  3.5731398970649666e-27  3.7694630907017250e-27  3.5986481141811807e-27  3.6206535150112293e-27  3.5369560321344362e-27  3.6116924649239797e-27  3.5621425515889678e-27  3.6086398614074261e-27  3.6327235370877475e-27  3.5635285193903066e-27  3.6026851837973532e-27  3.6790539173218228e-27  3.6527558968133845e-27  3.7417987701747990e-27  3.5931101170434990e-27  3.6321009511611168e-27  3.6823951956376874e-27  3.6671754217345138e-27  3.6550056225952186e-27  3.5986449276266067e-27  3.7537489033775431e-27  3.4486961587526348e-27  3.6364395466320444e-27  3.6744140902492831e-27  3.6508797176384390e-27  3.6708072093327180e-27  3.5095986419273607e-27  3.6298493317264207e-27  3.7218560209168146e-27  3.6395689988387930e-27  3.6533380684164532e-27  3.5575739845897308e-27  3.6186976182053037e-27  3.6495861839327433e-27  3.6279047258596560e-27  3.4689660482405333e-27  3.6185001849515894e-27  3.6249332566121585e-27  3.6543462306501591e-27  3.5254681955479953e-27  3.7503266864198832e-27  3.8817333603817738e-27  3.3129149663901155e-27  3.4938536775953046e-27  4.0318674920815534e-27  3.4550325715441398e-27  3.9798134743800783e-27  3.6068148163048590e-27  3.4634571016406409e-27  3.4896890774743511e-27  3.6957862339652983e-27  4.0881566882850571e-27  3.7137378567302427e-27  3.5952184415318596e-27  3.4232175912731022e-27  3.9610894028166017e-27  3.8442879322778241e-27  3.6161083252895984e-27  3.6360013565600748e-27  3.5302684037786726e-27  3.6658192750166375e-27  3.3493031408366295e-27  4.0187433475112195e-27  3.6596897422873130e-27  3.0751643889982381e-27  3.7193529118691942e-27  2.4125330762625393e-27  3.5429269405718990e-27  5.0013061540047149e-27  3.8439572519353707e-27  3.2121180098618938e-27  3.6524554868702214e-27  3.0959584253958886e-27  3.5802165795583986e-27  3.7900712265660211e-27  3.6367593452604507e-27  3.5555241759781640e-27  3.5605373397227108e-27  3.5621067279341168e-27  3.6180698567860322e-27  3.6225485264638727e-27  3.6217832242195345e-27  3.6201853155297168e-27  3.6130419216523907e-27  3.6245181100178055e-27  3.5646789763678857e-27  3.6186885523575060e-27  3.6138537145427180e-27  3.6166329331418190e-27  3.6422312723615863e-27  3.6065029157434004e-27  3.6184232436968513e-27  3.6288125962433799e-27  3.6377767805918988e-27  3.6247730392739564e-27  3.6128423951892221e-27  3.6792951599381480e-27  3.5586695189249817e-27  3.5797302614387737e-27  3.6772255265452815e-27  3.6892415215464670e-27  3.5935525025430542e-27  3.6211693948578607e-27  3.5850785578981807e-27  3.6799810939340211e-27  3.6724176695913709e-27  3.4345565742969860e-27  3.7748168072025520e-27  3.6036950517066274e-27  3.5943908664332072e-27  3.5793653400765903e-27  3.6256114154241295e-27  3.6243702205180020e-27  3.6150921997561400e-27  3.5153800653917381e-27  3.6310909433416975e-27  3.6308045888079677e-27  3.6451128093757726e-27  3.6212824378736296e-27  3.6281916935320571e-27  3.5420836932553224e-27  3.5481472144717079e-27  3.6192593405653006e-27  3.5864590391423377e-27  3.4323950883730623e-27  3.7855482726324477e-27  3.5901999304594939e-27  3.5263559667518128e-27  3.5390662255456273e-27  3.5934855241824378e-27  3.6028409291286841e-27  3.6709791921833035e-27  3.6323435694484915e-27  3.5746006665333556e-27  3.4449435742117533e-27  3.6339472877364721e-27  3.6285305414190431e-27  3.6377905510466262e-27  3.6834969237175287e-27  3.6157903762589780e-27  3.8739093178750461e-27  3.4389061492758178e-27  3.5918568153310442e-27  3.6228614730777175e-27  3.8016577364564885e-27  3.6069607381399743e-27  3.5635658133336623e-27  3.4947075523103407e-27  3.6588411065410758e-27  3.6020414047412452e-27  3.7407429618836142e-27  3.5815905085006570e-27  3.5168905793424735e-27  3.5661201265008055e-27  3.5613422439098945e-27  3.5186413067477391e-27  3.5590159496035818e-27  3.6435826861448510e-27  3.6871971971109827e-27  3.6280798365955882e-27  3.6139475387525268e-27  3.6017007815906349e-27  3.9662738113999541e-27  3.5228430776939253e-27  3.6800080569359517e-27  3.5890048316472001e-27  3.6906035355097694e-27  3.5729353968070091e-27  3.5716126329802710e-27  3.4451730585560745e-27  3.5993449532880848e-27  3.6685668376757072e-27  3.6356223180912761e-27  3.4389069232686245e-27  3.9024136556766595e-27  3.4408916899629811e-27  3.6297215425627325e-27  3.5940129687865361e-27  3.5056422751758946e-27  3.7397485023706345e-27  3.6225049710661798e-27  3.5513782047137665e-27  3.7617563295651985e-27  3.4562483754898043e-27  3.5952461762457425e-27  3.5622483110095559e-27  3.6046383501084330e-27  3.6581839962459961e-27  3.5355690804896315e-27  3.6296653631586074e-27  3.5924329128629885e-27  3.7325730845949415e-27  3.5947783430547670e-27  3.6589250609439812e-27  3.5575289400096570e-27  3.7078884861333827e-27  3.5718585525607927e-27  3.5943605421013435e-27  3.6880728715377386e-27  3.7636048151680640e-27  3.5674726725354822e-27  3.7005886760623174e-27  3.6874049017294204e-27  3.4407155346704649e-27  3.6661377505069889e-27  3.4228831672147703e-27  3.6772750065842158e-27  3.6371570528318920e-27  3.5561470655509105e-27  3.5641305753573872e-27  3.5610506465777890e-27  3.6188474306475855e-27  3.6246117669955646e-27  3.6176342377590390e-27  3.6145829326393882e-27  3.6195429772661025e-27  3.6263693223582153e-27  3.5590108691375824e-27  3.5759711487067430e-27  3.6802221582080413e-27  3.6904393327916668e-27  3.5938512446018345e-27  3.6207177223224727e-27  3.5912909959708037e-27  3.6680438092871943e-27  3.3682117888296850e-27  3.6968782689226179e-27  3.6091382639679316e-27  3.6033846352456230e-27  3.6399476848345968e-27  3.6120323332932303e-27  3.5674974251885429e-27  3.5462504835235003e-27  3.6515346485773525e-27  3.5896756856411164e-27  3.6445271702395028e-27  3.5966813212209013e-27  3.6534182069239168e-27  3.5769582182059342e-27  3.6656557634522644e-27  3.5494475203155957e-27  3.6019311516211332e-27  3.7423076691758019e-27  3.6643137992695929e-27  3.5887852893334839e-27  3.4763786824142719e-27  3.4571696717091688e-27  3.5819953929913871e-27  3.5174118490250797e-27  3.6323401970610459e-27  3.6669525815475508e-27  3.6523344684952817e-27  3.6654994906380402e-27  3.6727603113834864e-27  3.5993227574671100e-27  3.6839480810621867e-27  3.6066446727188370e-27  3.8621706177267587e-27  3.7425057513480416e-27  3.5912249921296972e-27  3.5328069910266561e-27  3.6481775547704816e-27  3.6075826590569956e-27  3.4870559506761081e-27  3.8356121213195925e-27  3.6409582613507672e-27  3.5611284459038486e-27  3.6274365655882785e-27  3.5915492406688664e-27  3.6862220068242068e-27  3.6551590292537140e-27  3.6160632351422940e-27  3.7088348526096369e-27  3.6776551419373385e-27  3.5435903893831697e-27  3.6212685347881236e-27  3.5913585372106688e-27  3.6139963263551004e-27  3.5905612961909050e-27  3.6541415063344921e-27  3.6242271234311777e-27  3.6411172066515624e-27  3.5826047098404975e-27  3.6237431435939949e-27  3.8516712654022631e-27  3.6390950721306171e-27  3.6323790236029539e-27  3.6372534395218384e-27  3.5160320520112101e-27  3.6259884491028818e-27  3.6185060916938430e-27  3.6153942538372944e-27  3.5906396887272809e-27  3.5239286764626672e-27  3.6170448404053347e-27  3.5659632322073614e-27  3.6454862649280754e-27  3.6206293009583477e-27  3.6237356489237460e-27  3.6168503738179047e-27  3.6277454163490083e-27  3.5605106255404783e-27  3.6146768740506280e-27  3.5919703571759978e-27  3.6225996714467061e-27  3.6818356854327047e-27  3.6112271464153382e-27  3.6259480905288067e-27  3.6384435848305699e-27  3.6215580170904829e-27  3.5632270521052699e-27  3.6203031249665033e-27  3.6109951876592189e-27  3.6342451604150582e-27  3.8794050591546275e-27  3.5769204954214400e-27  3.7093653519103370e-27  4.0919680816387393e-27  3.4284521193340438e-27  3.5556937923116003e-27  3.7658850655413994e-27  3.4530301231847658e-27  3.6106064710312836e-27  3.4653004552429177e-27  3.3902161666443039e-27  3.9861910135596294e-27  3.4177641666413006e-27  3.4185869723523632e-27  3.5168269917265125e-27  3.8661951733576574e-27  3.4048923233040997e-27  3.7007826056682908e-27  3.8779700944737768e-27  3.4886035564647758e-27  4.0270133737251801e-27  3.2179318381060469e-27  3.9584684666594715e-27  3.8433846615400201e-27  3.7269129682154628e-27  3.6172942703289331e-27  3.5434849695440575e-27  4.0205312056662119e-27  3.3584905107324155e-27  3.2551659059250031e-27  3.1807187996379871e-27  3.2246950747287231e-27  3.8475610707655124e-27  3.7311560448264975e-27  3.7533180503684327e-27  -2.5992275013385345e-27  3.0244037026674852e-27  9.9817002206715452e-27  1.0195472061204722e-26  3.4160002315566237e-27  1.7709608234884047e-27  1.9312893784677638e-27  1.8271863130238500e-27  -8.0068892254719021e-28  3.5060139509827117e-27  5.8414167059723164e-27  2.7119729826943676e-27  3.9286989056523605e-27  3.1108402695887370e-27  6.7030005665668056e-27  4.4446302081840962e-27  2.2428159659241775e-27  2.0079254678251397e-27  3.4985065271873064e-27  3.4288590398628328e-27  3.5484606364206137e-27  3.0954985601595691e-27  2.7737548231181593e-27  4.1396085573470722e-27  5.0344476970750963e-27  3.2236189601530442e-27  3.6952600866889740e-27  3.0799453967066425e-27  3.7413083729102922e-27  4.2162074161031604e-27  3.3718379837244200e-27  5.0002212341852365e-27  4.3922647054966054e-27  2.9450030922931411e-27  3.5956785586705161e-27  3.5405464820234200e-27  3.7447790050126560e-27  3.5885805236994395e-27  3.4200765471775968e-27  3.6133008538368315e-27  3.6824709373790925e-27  3.6186680879578759e-27  3.6023675316040034e-27  3.5500048893892880e-27  3.5937965118821024e-27  3.4725379448787569e-27  3.5169118767343027e-27  3.7540682746443080e-27  3.4834223100334629e-27  3.5468925714693951e-27  3.7220946671550606e-27  3.5986014725279809e-27  3.6601906498665018e-27  3.5713625276133125e-27  3.7297292102106045e-27  3.6115734676026182e-27  3.7620738714737106e-27  3.5287422880012822e-27  3.6695452950413790e-27  3.6565441569675988e-27  3.6432540920506029e-27  3.5161562017494181e-27  3.7140470371140318e-27  3.6790325112644798e-27  3.6806914200813402e-27  3.6184330478475818e-27  3.6224213044949195e-27  3.6600161941869368e-27  3.6255384651085781e-27  3.6420222890129982e-27  3.6148964099356528e-27  3.5979967220239660e-27  3.6651554367223118e-27  3.6215381528780681e-27  3.5844844259472756e-27  3.6834962416431865e-27  3.6158234515614712e-27  3.5033895034042758e-27  3.6413987607697706e-27  3.4239571217351813e-27  3.6832030155550022e-27  3.6056052132915907e-27  3.5875316164867414e-27  3.5389046794463482e-27  3.5953406180601383e-27  3.5841536545995147e-27  3.3981373372396732e-27  3.5969406331741544e-27  3.5659882713295578e-27  3.8065202818563217e-27  3.5983626075951517e-27  3.6552813715186656e-27  3.5584138811745908e-27  3.5463374463004098e-27  3.5074417693957977e-27  3.6776302732207303e-27  3.6315378632135325e-27  3.6299158654155755e-27  3.6564190228785697e-27  3.6117891463712095e-27  3.6386332593111507e-27  3.6494251950976446e-27  3.6253913159407718e-27  3.5958788655763394e-27  3.6171412039360170e-27  3.6185952462913424e-27  3.6362738303732911e-27  3.5601461932974608e-27  3.5576946046621779e-27  3.6342680613543866e-27  3.6165697534838967e-27  3.6164929442553864e-27  3.6199828006757449e-27  3.6220572394046358e-27  3.6222267547042394e-27  3.6423209630182765e-27  3.6570545733319789e-27  3.6046006455946603e-27  3.6279734640693551e-27  3.6085331789020456e-27  3.6029206375176500e-27  3.6333344055266229e-27  3.6129698422700256e-27  3.6768312361862847e-27  3.6859914039230287e-27  3.3541521697122854e-27  3.6864995159370452e-27  3.5596554754170986e-27  3.6798079426534407e-27  3.6693059860738757e-27  3.6116637499453074e-27  3.4305138575561020e-27  3.8481737888547115e-27  3.4628265121597629e-27  3.1773494453788425e-27  3.4911160415631401e-27  3.9162348223972738e-27  3.4399209540015140e-27  3.4284228534848816e-27  4.4496411649685590e-27  1.7542369003425548e-27  3.7589606915461951e-27  3.5204191110375905e-27  3.5271440359274222e-27  2.7564518750509346e-27  3.6798590924908671e-27  3.5798307400433995e-27  3.4104703242483295e-27  4.9645833850667130e-27  3.7025248497554439e-27  2.9470379514675873e-27  3.5263754485387090e-27  3.4611772218624621e-27  3.6278027275807254e-27  3.6270475270552087e-27  3.6037021899904890e-27  3.6088632409565139e-27  3.6088875559560835e-27  3.6441043310148356e-27  3.6922817618104877e-27  3.6628336917851898e-27  3.6092150239641994e-27  3.5974783964055811e-27  3.7158784250878774e-27  3.6775471563717829e-27  3.6288004938147869e-27  3.6141231331191066e-27  3.6176471802811077e-27  3.5359052906085248e-27  3.5901611732361017e-27  3.6072353438927293e-27  3.6299379207272569e-27  3.5419166077777086e-27  3.5223281316965359e-27  3.6053038026872773e-27  3.7868466294459642e-27  3.6055392259500433e-27  3.7120839844870412e-27  3.6033829094344341e-27  3.6109132288434853e-27  3.6619321780198767e-27  3.5904253448383746e-27  3.8172404781103435e-27  3.6224523715516037e-27  3.5153754067300626e-27  3.6303291823734996e-27  3.5896918736402707e-27  3.6205779696675920e-27  3.5612855305254595e-27  3.6135688890094990e-27  3.6213948189060478e-27  3.6303740421633941e-27  3.5307575513752226e-27  3.6221039423538451e-27  3.6334944969076070e-27  3.6344105763361766e-27  3.6184452640125312e-27  3.6443677596359163e-27  3.6272997777715926e-27  3.5462554831527220e-27  3.5997921010247157e-27  3.6933704529138383e-27  3.4732914572467918e-27  3.1907108338847172e-27  3.5237846774750888e-27  3.9596425429393604e-27  3.5263000965146980e-27  3.7123560084356909e-27  3.5973502363418323e-27  3.3702231465012776e-27  3.9623067693908113e-27  3.6354563287074529e-27  3.8802170266028669e-27  3.6128000743287522e-27  3.7218738400900384e-27  3.4466094800217901e-27  3.6535131588590137e-27  3.4580999621311943e-27  3.6685584487100953e-27  3.6068298272268570e-27  3.6344241741278968e-27  3.7142331393658422e-27  3.6294555506066966e-27  3.6241539155195054e-27  3.6001355615639644e-27  3.6421113015252517e-27  3.7243122417416043e-27  3.6810326892646752e-27  3.2683886591070866e-27  3.6070476826620922e-27  3.6253771743240281e-27  3.6086789467853391e-27  3.7283225242163825e-27  3.5315001741012694e-27  3.4872830850027324e-27  3.6546699050345467e-27  3.5785960927635721e-27  3.6305608450906764e-27  3.6476746857284823e-27  3.6224015132429796e-27  3.5963552810118070e-27  3.7019765949592357e-27  3.6280011711871098e-27  3.6321696762358088e-27  3.5712259859563497e-27  3.7215817433204737e-27  3.4659793575025845e-27  3.4656799152957363e-27  3.6623143375737177e-27  3.5955770682505620e-27  3.6124133944679573e-27  3.5590986280761241e-27  3.5531687955711163e-27  3.7632201513355019e-27  3.7326245261931222e-27  3.6407467605211656e-27  3.6249986175862131e-27  4.0177190182588011e-27  3.6299616080436439e-27  3.5084638242700076e-27  3.6390440529181939e-27  3.6247927481724940e-27  3.5142162679743116e-27  3.5596982808477698e-27  3.6517091498561607e-27  3.6022860315806435e-27  3.6096140611736693e-27  3.5782989262846652e-27  3.6442205900072052e-27  3.6290219267759042e-27  3.6863843636626894e-27  3.6691110438120424e-27  3.6132423222026822e-27  3.6039954531416607e-27  3.7044734395103354e-27  3.6590034605401118e-27  3.6104364488697034e-27  3.6066595800115145e-27  3.6312802319869838e-27  3.6201394285511624e-27  3.5709477303425808e-27  3.6040872229847481e-27  3.6491256719611313e-27  3.5983407719702945e-27  3.5160623916828138e-27  3.5330145781263820e-27  3.6008025682868330e-27  3.7582983071555878e-27  3.6005078889464264e-27  3.6678542596356038e-27  3.7703922575352647e-27  3.5390643672309108e-27  3.6500773700870650e-27  3.6473586895302028e-27  3.6217414609333033e-27  3.6159765828361825e-27  3.6169059211261338e-27  3.6119949408390068e-27  3.6838349305671302e-27  3.6120326781444902e-27  3.6325157614047028e-27  3.6291385316004897e-27  3.6199178828325209e-27  3.6187266654599202e-27  3.6244308119954653e-27  3.6848119602094621e-27  3.6878060729883624e-27  3.5817096003268390e-27  3.5680318144395583e-27  3.5870284735242957e-27  3.6188090428487623e-27  3.5887355509916462e-27  3.7926204355300373e-27  3.5263911410755403e-27  3.6250387037631107e-27  3.6677413243960051e-27  3.6111878299157029e-27  3.5826063825538066e-27  3.6855987620717011e-27  3.6168789372216917e-27  3.6803728080911089e-27  3.5778741347705463e-27  3.6196997940715810e-27  3.6258710965014322e-27  3.7048923392059646e-27  3.6295022579346015e-27  3.3401286153455078e-27  -9.1143693749675111e-27  1.6223212639638877e-27  3.6011396646408321e-27  -5.2354802533145060e-28  5.8270890419788597e-27  -2.5941788574655463e-27  6.6863619560290433e-27  1.0140731674690577e-26  5.9576951901631859e-27  4.3659960284469818e-27  2.9206139493309540e-27  2.2492400424776739e-27  3.0256154616937655e-27  -8.5210742143885594e-27  -3.3790006369089301e-28  9.6007609722287099e-27  1.8255547950049667e-27  4.2099853853066782e-27  4.3092880364203313e-27  6.7999551067076622e-27  9.9770728550933288e-27  6.6479595739448437e-27  3.0388776353359528e-27  3.5006617586069480e-27  -8.1345826916913273e-28  2.7482898744975174e-27  3.4826760475080183e-27  4.0572004353356445e-27  1.8351804190982093e-27  2.7979127773395582e-27  4.2397345351199737e-27  2.2843477731390508e-27  2.0117208597251303e-27  3.6977100796605754e-27  3.1923061530143635e-27  4.6554898666401084e-27  4.3924621915291788e-27  2.9134458807570483e-27  5.00