<?xml version="1.0"?>
<VTKFile type="UnstructuredGrid"  version="0.1"  >
<UnstructuredGrid>
<Piece  NumberOfPoints="4676" NumberOfCells="20632">
<Points>
<DataArray  type="Float64"  NumberOfComponents="3"  format="ascii">21.019409 -12.395839 -50.403647  18.4542715 -11.3435115 -48.340681  19.8399995 -10.784317 -47.9374905  20.0587345 -11.2097065 -51.041677  19.09806 -10.023574 -51.679707  17.493597 -10.157379 -48.978711  18.879325 -9.5981845 -48.5755205  18.66059 -9.172795000000001 -45.471334  17.274862 -9.731989500000001 -45.8745245  15.889134 -10.291184 -46.277715  19.4009 -12.7212785 -50.938809  18.4402255 -11.535146 -51.576839  17.782391 -13.046718 -51.473971  16.8357625 -11.668951 -48.875843  19.3248395 -12.5817885 -47.7082585  17.63027 -12.767738 -45.01287  16.759702 -11.529461 -45.6452925  18.14543 -10.9702665 -45.242102  17.7063305 -12.907228 -48.2434205  17.5896915 -7.685940500000001 -46.1274435  19.2540205 -7.3973465 -45.5088585  19.5874595 -8.082771000000001 -48.5536055  19.847451 -5.621898 -45.546383  21.367203 -18.075025 -48.505011  18.80434 -17.178577 -49.83983600000001  18.9365515 -17.136928 -46.4175295  19.6788095 -18.4270675 -49.050136  20.4927335 -16.8265345 -49.29471100000001  19.618264 -15.578044 -50.084411  18.062082 -15.8884375 -47.2072295  17.990416 -18.77911 -49.595261  17.248158 -17.4889705 -46.9626545  16.5059 -16.198831 -44.330048  16.2570055 -13.377814 -48.622817  15.310377 -12.000047 -46.024689  16.180945 -13.238324 -45.3922665  14.73162 -13.70891 -45.771663  15.938776 -10.3620175 -49.4615005  15.360209 -12.127132 -49.226336  16.8854045 -11.7397845 -52.0596285  16.246549 -16.135207 -51.104841  13.9751495 -15.311082 -48.753446  14.879847 -16.602523 -48.0580615  15.4890845 -14.9220585 -48.438252  16.3762245 -16.167019 -47.7174445  17.174942 -14.643477 -47.928037  17.9324065 -15.8566255 -50.59462600000001  15.61876 -14.9538705 -45.0508555  14.626108 -13.5580655 -49.0841075  17.01447 -14.5909625 -51.289406  20.514329 -6.992747 -51.635877  19.8061945 -8.508160499999999 -51.657792  21.1481825 -8.224015 -51.176076  21.782036 -9.455283 -50.716275  20.221313 -9.314039000000001 -48.0938045  20.440048 -9.739428499999999 -51.197991  17.8084265 -8.111330000000001 -49.23163  18.110076 -18.707315 -46.130669  19.7984695 -18.3552725 -45.585544  20.5589605 -19.681153 -48.1938965  19.750718 -21.287281 -47.882782  18.990227 -19.9614005 -45.2744295  18.229736 -18.63552 -42.666077  17.367818 -17.4171755 -43.4980625  23.462347 -7.01119 -50.362302  20.8147435 -7.5385905 -48.131329  22.6221915 -8.2332365 -50.5392885  21.988338 -7.0019685 -50.9990895  18.624267 -14.172891 -47.5486405  17.068085 -14.4832845 -44.671459  16.5603545 -9.1475405 -49.477469  20.3188365 -13.9869415 -50.244029  18.7003275 -14.312381 -50.779191  16.2039635 -8.245134999999999 -46.530634  21.4007225 -10.925561 -50.559961  45.989047 -16.04909 -11.288677  46.511722 -17.01355225 -10.953346  45.73570375 -16.7307845 -11.25773825  45.989047 -16.43287 -10.64313175  45.989047 -16.81665 -9.997586500000001  46.25837875 -17.69524675 -10.92240725  46.511722 -17.39733225 -10.30780075  45.73570375 -17.1145645 -10.612193  45.4823605 -17.412479 -11.2267995  47.034397 -17.9780145 -10.618015  46.76506525 -16.33185775 -10.98428475  46.76506525 -16.71563775 -10.3387395  47.5410835 -16.6146255 -10.6798925  47.28774025 -17.29632 -10.64895375  45.989047 -17.58421 -8.706496  46.511722 -17.78111225 -9.662255500000001  46.76506525 -17.48319775 -9.047649  46.76506525 -17.09941775 -9.693194250000001  47.5410835 -16.9984055 -10.03434725  47.5410835 -17.3821855 -9.388802  47.28774025 -17.6801 -10.0034085  45.73570375 -17.8821245 -9.321102499999999  45.989047 -17.20043 -9.352041249999999  46.25837875 -18.07902675 -10.276862  45.73570375 -17.4983445 -9.96664775  45.4823605 -18.180039 -9.935708999999999  49.09312 -17.180161 -10.071108  48.0637585 -17.57908775 -10.3445615  48.31710175 -17.28117325 -9.729955  48.31710175 -16.89739325 -10.37550025  44.975674 -18.775868 -11.164922  46.0050355 -18.37694125 -10.8914685  45.22901725 -18.4779535 -10.5503155  45.4823605 -17.796259 -10.58125425  45.22901725 -18.0941735 -11.19586075  43.240023 -30.84224 -17.749834  41.71549175 -30.63700775 -17.013729  42.68926875 -31.394734 -18.05259675  42.96218875 -31.4498235 -17.2975795  42.6843545 -32.057407 -16.845325  41.1647375 -31.18950175 -17.31649175  41.4376575 -31.24459125 -16.5614745  42.4114345 -32.0023175 -17.60034225  42.1385145 -31.947228 -18.3553595  40.1909605 -30.4317755 -16.277624  42.128686 -33.272574 -15.940816  40.61398325 -31.74199575 -17.6192545  39.08945199999999 -31.5367635 -16.8831495  41.15982325 -31.85217475 -16.10922  41.582846 -33.162395 -17.4508505  39.635292 -31.6469425 -15.373115  41.037006 -33.052216 -18.960885  37.141898 -30.021311 -14.805414  38.66642925 -30.22654325 -15.541519  42.13360025 -32.609901 -17.14808775  41.58776025 -32.49972200000001 -18.65812225  42.40652025 -32.6649905 -16.3930705  51.289975 -19.468302 -11.239381  50.46727825 -19.15805825 -11.63275775  50.74028925 -18.42428975 -11.64158875  50.74076125 -18.89626675 -10.94731275  50.1915475 -18.3242315 -10.6552445  49.9180645 -18.586023 -11.3406895  50.1910755 -17.8522545 -11.3495205  50.19060349999999 -17.3802775 -12.0437965  49.9175925 -18.114046 -12.0349655  49.6445815 -18.8478145 -12.0261345  51.289503 -18.996325 -11.933657  50.46680625 -18.68608125 -12.32703375  50.73981724999999 -17.95231275 -12.33586475  51.28903099999999 -18.524348 -12.627933  51.016492 -19.7300935 -11.924826  50.19379525 -19.41984975 -12.31820275  51.01602 -19.2581165 -12.619102  50.743009 -19.991885 -12.610271  51.288087 -17.580394 -14.016485  51.28855899999999 -18.052371 -13.322209  50.46633425 -18.21410425 -13.02130975  50.73934525 -17.48033575 -13.03014075  51.01507599999999 -18.3141625 -14.007654  50.19332325 -18.94787275 -13.01247875  51.015548 -18.7861395 -13.313378  50.742065 -19.047931 -13.998823  50.196043 -20.515468 -13.981161  50.469054 -19.7816995 -13.989992  50.742537 -19.519908 -13.304547  49.92031225 -19.68164125 -13.00364775  50.469526 -20.2536765 -13.295716  49.36885075 -18.01398775 -11.04862125  49.64186175 -17.28021925 -11.05745225  49.64233375 -17.75219625 -10.36317625  52.226008 -18.208582 -8.768789999999999  51.20875775 -18.59738025 -9.03449775  51.75900075 -19.20064775 -9.246650499999999  51.99199975000001 -18.523512 -9.386437749999999  51.7579915 -18.838442 -10.0040855  50.9747495 -18.91231025 -9.6521455  51.5249925 -19.51557775 -9.864298249999999  51.2919935 -20.1927135 -9.724511  50.7417505 -19.589446 -9.51235825  50.1915075 -18.9861785 -9.300205500000001  50.74074125 -19.22724025 -10.26979325  51.29098425 -19.83050775 -10.481946  51.52398325 -19.153372 -10.62173325  52.226008 -16.698287 -11.384698  51.44290525 -16.38787875 -11.67777875  51.442786 -16.8187555 -11.0563005  51.20830574999999 -17.03928225 -11.71424725  50.65968325 -16.50834725 -11.34938125  50.425203 -16.728874 -12.007328  50.42508375 -17.15975075 -11.38584975  50.659564 -16.939224 -10.727903  50.6598025 -16.0774705 -11.9708595  51.99152775 -16.91881375 -12.04264475  50.9738255 -17.259809 -12.372194  51.7570475 -17.1393405 -12.7005915  51.208425 -16.6084055 -12.3357255  50.97394475 -16.82893225 -12.99367225  50.7394645 -17.049459 -13.651619  50.19072275 -16.94940075 -12.66527475  50.190842 -16.518524 -13.286753  50.42532225 -16.29799725 -12.62880625  51.52256724999999 -17.35986725 -13.35853825  49.87646125 -16.62881575 -11.02098375  49.09323925 -16.74928425 -10.69258625  49.8765805 -16.197939 -11.642462  49.641981 -16.8493425 -11.6789305  49.0933585 -16.3184075 -11.3140645  49.876342 -17.0596925 -10.3995055  49.093597 -15.456654 -12.557021  49.87669975 -15.76706225 -12.26394025  49.09347775000001 -15.88753075 -11.93554275  49.64210025 -16.41846575 -12.30040875  49.6422195 -15.987589 -12.921887  50.4664535 -17.7832275 -13.642788  49.91771175 -17.68316925 -12.65644375  49.64470075 -18.41693775 -12.64761275  49.64482 -17.986061 -13.269091  49.91783100000001 -17.2522925 -13.277922  50.1934425 -18.516996 -13.633957  49.92043150000001 -19.2507645 -13.625126  49.36897 -17.583111 -11.6700995  49.36908925 -17.15223425 -12.29157775  49.3692085 -16.7213575 -12.913056  48.915042 -23.613886 -13.627291  47.282046 -23.410677 -13.60968375  47.6310045 -23.12158075 -12.9004525  47.62996275 -22.65078125 -13.69589825  46.34488349999999 -21.6876765 -13.7645055  45.99696675 -22.44757225 -13.678291  46.34592524999999 -22.158476 -12.96905975  46.346967 -22.6292755 -12.173614  45.9980085 -22.91837175 -12.88284525  45.64905 -23.207468 -13.5920765  43.774725 -19.761467 -13.90172  43.42680824999999 -20.52136275 -13.8155055  43.77576675 -20.2322665 -13.10627425  44.7118875 -21.4844675 -13.74689825  44.36397075 -22.24436325 -13.66068375  44.71292925 -21.955267 -12.9514525  43.7768085 -20.703066 -12.3108285  43.42785 -20.99216225 -13.02005975  43.0788915 -21.2812585 -13.729291  45.05980425 -20.72457175 -13.83311275  45.060846 -21.19537125 -13.037667  43.778892 -21.644665 -10.719937  43.4299335 -21.93376125 -11.42916825  43.77785025 -21.1738655 -11.51538275  44.713971 -22.4260665 -12.15600675  44.3650125 -22.71516275 -12.865238  43.42889175 -21.46296175 -12.224614  43.080975 -22.2228575 -12.1383995  45.06188775 -21.66617075 -12.24222125  45.0629295 -22.13697025 -11.4467755  42.383058 -22.80105 -13.556862  42.7320165 -22.51195375 -12.84763075  43.07993325 -21.752058 -12.93384525  44.016054 -23.004259 -13.57446925  42.73097475 -22.04115425 -13.6430765  50.189166 -22.382709 -10.773207  48.5865975 -22.198198 -10.7598895  48.885793 -21.48099875 -10.87113575  48.567262 -21.788793 -11.58465675  46.945358 -21.194877 -12.3961065  46.9646935 -21.604282 -11.57133925  47.263889 -20.88708275 -11.6825855  47.58242 -20.5792885 -10.9690645  47.2832245 -21.29648775 -10.85781825  46.984029 -22.013687 -10.746572  49.870635 -22.69050325 -11.486728  48.248731 -22.09658725 -12.29817775  49.552104 -22.9982975 -12.200249  48.2680665 -22.50599225 -11.4734105  47.9495355 -22.8137865 -1
[...]
<PointData  Scalars="c_HbCO2"> 
<DataArray  type="Float64"  Name="c_HbCO2"  format="ascii">3.5891930298856505e-27  3.5944050122996370e-27  3.6116515742195735e-27  3.6535787966661198e-27  3.6421128169201896e-27  3.6271112846096222e-27  3.6196530158272061e-27  3.6177256729175458e-27  3.6117859160282476e-27  3.6379678336981045e-27  3.6256177484974494e-27  3.6044751635455330e-27  3.6077928026162745e-27  3.6237032941591542e-27  3.6453269111759967e-27  3.6175489928838937e-27  3.6240629476666756e-27  3.6191173584075994e-27  3.6194607603184561e-27  3.6346783106793109e-27  3.5950359925905636e-27  3.6100818508347136e-27  3.5677950235065646e-27  3.6219746794946500e-27  3.6302713794936781e-27  3.5935298147221022e-27  3.6011257718500680e-27  3.6069870736480361e-27  3.5919772977382973e-27  3.6208003161510452e-27  3.6095309669768424e-27  3.6222158852101965e-27  3.6148594387555827e-27  3.6443406597138638e-27  3.6000402067352042e-27  3.6174849951944727e-27  3.6216277098828306e-27  3.6185556528106857e-27  3.6029406632026233e-27  3.6115172873635103e-27  3.6035824652845691e-27  3.6320912540164499e-27  3.5895844596155987e-27  3.6081944224302154e-27  3.6460572044924737e-27  3.6007635044032713e-27  3.6287644015007021e-27  3.6192054121296937e-27  3.6090409345329666e-27  3.6023965263991353e-27  3.6083106368247303e-27  3.6464593693258239e-27  3.6096772960555220e-27  3.6090107822700004e-27  3.6049186334044583e-27  3.5696429037469954e-27  3.6340496508793780e-27  3.6458876865726478e-27  3.5961698836010234e-27  3.6361271944798857e-27  3.6151911102893676e-27  3.6233958878342942e-27  3.6127318202799444e-27  3.6151593482092765e-27  3.5924219933090357e-27  3.6060518859041389e-27  3.6303490796978583e-27  3.6223512214928103e-27  3.6115579283795121e-27  3.6106732082327200e-27  3.5773359272696250e-27  3.6361549389305431e-27  3.6448506575402947e-27  3.6262927299218678e-27  3.6125709308386034e-27  -3.5752400340315171e-27  9.0024358207225198e-27  4.2074657888778569e-27  -9.5045478940028821e-27  -1.4759934737333805e-27  5.1736786819273808e-28  5.3685897122624843e-27  6.2797088933377697e-27  4.6457837817207941e-27  2.8562408076657161e-27  6.7277709359443561e-27  5.1193924279644666e-27  2.7857722353907846e-27  3.4323836330326365e-27  -3.5866452384209728e-27  8.8675213444143355e-27  5.4157026561331339e-27  6.7037461290930318e-27  3.9217289984555157e-27  2.6989167237691073e-27  2.5370793348375044e-27  5.0256278967158517e-27  -8.5901176974190057e-27  1.1118948852123159e-27  5.7146435134119628e-27  4.2593252605180097e-27  3.2665247575898497e-27  3.2763960080751800e-27  3.9153835393359331e-27  3.6071402406497186e-27  4.0731731215575552e-27  2.4406074992994385e-27  2.2759508935094903e-27  6.6501096313076905e-27  1.8356957251430339e-27  3.6438064388178065e-27  3.4997828616255146e-27  3.7646207083632559e-27  3.6714431829833868e-27  3.6170227287132773e-27  3.6416344062495837e-27  3.6771280310316037e-27  3.6422332609272679e-27  3.6035187011156961e-27  3.6526077574530732e-27  3.6518124932660335e-27  3.6976340966485121e-27  3.6347335212515224e-27  3.6327544807818600e-27  3.5161528616097285e-27  3.6291260061519290e-27  3.6603261951047985e-27  3.5760637338116852e-27  3.5676658373925523e-27  3.6442438172000071e-27  3.2790104610143660e-27  3.5562269815026248e-27  3.7907559639205076e-27  3.6671074567372292e-27  3.3814678250058038e-27  3.8460272055205782e-27  3.7538738509966972e-27  3.4434227814756256e-27  3.5025298780360696e-27  3.6315964620420204e-27  3.4072659544167526e-27  3.5350589298276722e-27  3.4599135426142239e-27  3.7083855456238056e-27  3.6115071903444135e-27  3.6619120514395944e-27  3.5636544483280266e-27  3.7246175849833410e-27  3.7547996798272101e-27  3.6127651541016228e-27  3.7910852964786905e-27  3.2073654509667720e-27  3.5484475545339465e-27  3.7804563388794166e-27  3.8988878138185972e-27  3.7146310753427501e-27  3.9515447124615917e-27  3.5899992303583171e-27  3.5150433088496775e-27  3.3357372351143946e-27  3.2378055584916581e-27  4.0610968540518053e-27  3.1443562162174956e-27  3.8401431467642447e-27  3.8093118416138956e-27  3.6815102025653136e-27  5.7941736138432468e-27  4.0203387506176962e-27  3.6634955788326428e-27  1.7221445620182938e-27  3.8563966493025758e-27  3.8632641138985651e-27  3.3903598387423411e-27  3.6638795596619272e-27  3.6112357540326203e-27  3.6343995192811318e-27  3.7775215167710795e-27  3.2191652396135339e-27  4.2188386357872321e-27  5.7957039782276367e-27  -2.8719314217380202e-28  3.7080340732232272e-27  4.0230625926585077e-27  3.9335877585119910e-27  3.5121046175517735e-27  3.3605602869243531e-27  3.3876591169742014e-27  3.2293089033872446e-27  1.7220494906785839e-27  3.8620700719748807e-27  3.8585693388221418e-27  4.2705574085913765e-27  2.9511906208003138e-27  3.8523378225549453e-27  3.5321387839229263e-27  3.7610837442007648e-27  4.0235114949313134e-27  4.2143798043135176e-27  3.4935833353688080e-27  3.1077841924403313e-27  3.9550802867542353e-27  3.5460091109734055e-27  5.1004456577510494e-27  3.3202019237431734e-27  3.2673235430711896e-27  3.1052182892347425e-27  3.2390212000878779e-27  3.6279132569231369e-27  3.6851192058559018e-27  3.4565082434223309e-27  3.8503934984777990e-27  3.4756439705370279e-27  3.7432718329546421e-27  3.6107838417353236e-27  3.5693167069623779e-27  3.6811336877441579e-27  3.6843022771005401e-27  2.2945581781008503e-27  3.5098938228094016e-27  3.6247229199705504e-27  3.6644896540472115e-27  3.4749039647309698e-27  3.4943642987436891e-27  3.5920450322331903e-27  3.6491137221029921e-27  3.5604365048976867e-27  3.6016558819597780e-27  3.6904274212070914e-27  3.6178538195342663e-27  3.4641973569101274e-27  3.6120171954150270e-27  3.6559368422841675e-27  3.6379297105862763e-27  3.7000842550421321e-27  3.4146520553991942e-27  3.6112176382362670e-27  3.8247904403857060e-27  3.5751807830712358e-27  3.6934686007982554e-27  3.5654696691886674e-27  3.4676463221815515e-27  3.5984940405792865e-27  3.6921155398189526e-27  3.6420752846241331e-27  3.6915981179175798e-27  3.7875153436116719e-27  3.5621505510772839e-27  3.5938994356627060e-27  3.7546507051492319e-27  3.4919231390216154e-27  3.7235198397765824e-27  3.9636850633815542e-27  3.6475039355840492e-27  3.7096055600025567e-27  3.5212713674744241e-27  3.9136980440723852e-27  3.5401369640703674e-27  3.6488981975794641e-27  3.4756667388862658e-27  3.5822272669692481e-27  4.0051214206279166e-27  3.0629695890953280e-27  4.0412354364246082e-27  3.4829016195824939e-27  3.6928932658627754e-27  3.5286353142757364e-27  3.6004025329771604e-27  3.4397688390582003e-27  3.8320240712683119e-27  3.7186653290805500e-27  3.7535127725828626e-27  3.5543356467855018e-27  3.4811966458733423e-27  3.5366718813894108e-27  3.7120822348123671e-27  3.7350090965027658e-27  4.0035220365336015e-27  3.5442616368564007e-27  3.6571836628883173e-27  3.6782902803922112e-27  3.7144947654645554e-27  3.8162267345553789e-27  3.4014643833891198e-27  3.6609095522158386e-27  3.5774075082146970e-27  3.6948800091437018e-27  3.5558079293999294e-27  3.6222077063501905e-27  3.6056657162574338e-27  3.6078512337302162e-27  3.6920281307615491e-27  3.5742233732768561e-27  3.6225133796298354e-27  3.5733240594262466e-27  3.6237957434348424e-27  3.6020973837454073e-27  3.4706217004678421e-27  3.6774818970266263e-27  3.6031654978783339e-27  3.6015045977823442e-27  3.5480325297688899e-27  3.7388524379195411e-27  3.5303114157033137e-27  3.6218004826071745e-27  3.6191882307126583e-27  3.6322986331267416e-27  3.6324712196501515e-27  3.4645798739994531e-27  3.7327843344390053e-27  3.3184273492374461e-27  3.4537092319351172e-27  3.7009169079564094e-27  3.7625048474334331e-27  3.6632765048073001e-27  3.0826964173093977e-27  3.7272578470727012e-27  3.7444464733351409e-27  3.5899234064515199e-27  3.7144759391098710e-27  3.6752713089739178e-27  3.6502952889883036e-27  3.7799152562255740e-27  3.5128067473068481e-27  3.4594957494344047e-27  3.6792095358756008e-27  3.7461956919738986e-27  3.7990048362325626e-27  3.4697245371718350e-27  3.5010922287689547e-27  3.1628505362720587e-27  3.9488914068211185e-27  3.5353619048148541e-27  4.5822847580753346e-27  2.5780327324457641e-27  2.6787213373226708e-27  4.5298131420700457e-27  3.6004394762499256e-27  4.6654566623016893e-27  3.5041874123391634e-27  2.9184469811530141e-27  4.8386571651653486e-27  4.4028288944160710e-27  1.9178411680950321e-27  4.3256218024959094e-27  4.0627731786713998e-27  3.3460064109129089e-27  3.0331529372850018e-27  4.8461393088797519e-27  3.8319173870325992e-27  3.6001399706391240e-27  3.5448258317339765e-27  3.5388525051151186e-27  3.6053773789432175e-27  3.6715056597490531e-27  3.5796003790846870e-27  3.6100119885481303e-27  3.6603076131438601e-27  3.6271762511843341e-27  3.4954698391392217e-27  3.5632536443863985e-27  3.6399631913927733e-27  3.5855145667707373e-27  3.6085831572206669e-27  3.7835372299090469e-27  3.4040511644191726e-27  3.6535431486560734e-27  3.6185720360846061e-27  3.6928666663255076e-27  3.5807500929024610e-27  3.6500676169098506e-27  3.5681318347254456e-27  3.5959082468592442e-27  3.7503308899186889e-27  3.6056917769060894e-27  3.6656422593240503e-27  3.6037179911168732e-27  3.7101934155524292e-27  3.5329107362929347e-27  3.6208753306561497e-27  3.7226704544603285e-27  3.9877949448414087e-27  3.6987227843647091e-27  3.6048209345638739e-27  3.6253157287697322e-27  3.4175219982515352e-27  3.6651086457751118e-27  3.6814496254813991e-27  3.5612077442171325e-27  3.6092871419440528e-27  3.6429943799392119e-27  3.5651064272045067e-27  3.6872646684168562e-27  3.7153185824277041e-27  3.5626707120708692e-27  3.5516663366032529e-27  3.6449922871631147e-27  3.5400269475039011e-27  3.4983218760517266e-27  3.5960432228606190e-27  3.6393920673680924e-27  3.5636365221135949e-27  3.6607109090227096e-27  3.6531265230162204e-27  3.6191173913914507e-27  3.6062675013825367e-27  3.7621380048901253e-27  3.6051378701542244e-27  3.6439511311777804e-27  3.6422885068282776e-27  3.6582766523408760e-27  3.6260216795625714e-27  3.6968697858968601e-27  3.6382251513595915e-27  3.5809712303521138e-27  3.5659694347129799e-27  3.5730143533816946e-27  3.2749302903889613e-27  3.5938899945198823e-27  3.7635600663765690e-27  3.5829915336870517e-27  3.6382676475377371e-27  3.6266751112469246e-27  3.6538602170424813e-27  3.5043785571866657e-27  3.6177162409380090e-27  3.5200855157946925e-27  3.6259066539882931e-27  3.5920833324218506e-27  3.6590309542379626e-27  3.5619885635294383e-27  3.6086125415574147e-27  3.6148741884242245e-27  3.6654071444348868e-27  3.6345044608804729e-27  3.6062410758172181e-27  3.5895621733027427e-27  3.6132136982862849e-27  3.6046636118866414e-27  3.6257803237081820e-27  3.6355885459247015e-27  3.5886137125629048e-27  3.5720561646801231e-27  3.6149986707945227e-27  3.6554883726504448e-27  3.7532077824682908e-27  3.6592506532938159e-27  3.4561225892586152e-27  3.6730017289238022e-27  3.5810240643885871e-27  3.5764941224770875e-27  3.6798117428149358e-27  3.6805989212987115e-27  3.6543670032508156e-27  3.5043971177280135e-27  3.6219200057661720e-27  3.6525380154277705e-27  3.6665735119049813e-27  3.6181957728650824e-27  3.4968167914189693e-27  3.6922047226119956e-27  3.4516240469224259e-27  3.7749515555257643e-27  3.3840303453974336e-27  3.0531549842512253e-27  3.4428768564217710e-27  4.0532865599995393e-27  4.6428925206440444e-27  2.3941410981227992e-27  3.9051163319500383e-27  2.6759945872968893e-27  3.5912425044728206e-27  2.7872254964571586e-27  3.5379935692925285e-27  3.6099299468838347e-27  4.8611551788023674e-27  3.9552999026752194e-27  3.6593603387125156e-27  3.6103180472307247e-27  3.6106144827362455e-27  3.6308534227789269e-27  3.5719073407203923e-27  3.6254665728281722e-27  3.6227490618461435e-27  3.6308806992803478e-27  3.6245501423618510e-27  3.5713094221418093e-27  3.5950944901408229e-27  3.6890719844301718e-27  3.6585115926496708e-27  3.5747291961778189e-27  3.6797462602625031e-27  3.6210000058403561e-27  3.6747730366930401e-27  3.5970267533187802e-27  3.6326266387174808e-27  3.5603337846372754e-27  3.6496066527147518e-27  3.6239309334041831e-27  3.5987821505255923e-27  3.6185227141834380e-27  3.6552924437046724e-27  3.5528188029631497e-27  3.6252354710401848e-27  3.6297165270582437e-27  3.5936170413773212e-27  3.5749519312671682e-27  3.6263665533814676e-27  3.5586743575544807e-27  3.6330601776820817e-27  3.6225986919593013e-27  3.6014676112207706e-27  3.5447368596228159e-27  3.6091098455952795e-27  3.7506009630534523e-27  3.6823957437399713e-27  3.5500373150136708e-27  3.5981083536440202e-27  3.6177000699479365e-27  3.7144190212057764e-27  3.6042051006722182e-27  3.5026884799089452e-27  3.6044022256217849e-27  3.5769188999291967e-27  3.6685764467742042e-27  3.5666837745690975e-27  3.6067683080483652e-27  3.7405828071059935e-27  3.5762877899872104e-27  3.6115326321061600e-27  3.5435387215137586e-27  3.6192348209367793e-27  3.6544230405421493e-27  3.5916329035934684e-27  3.3890176790367590e-27  3.6077599961882088e-27  3.5949692740012672e-27  3.7201634826003128e-27  3.6927989905773589e-27  3.6196457694831715e-27  3.5640755187028836e-27  3.6114174805365269e-27  3.6301041962040174e-27  3.6076555542265641e-27  3.5960902951743017e-27  3.6504520799192910e-27  3.5683856202615381e-27  3.6036488850205116e-27  3.6334143624407453e-27  3.5578103092799251e-27  3.6231057092472047e-27  3.6292720207646198e-27  3.6212882080074352e-27  3.5828030735932240e-27  3.5904411366184200e-27  3.6181114537436427e-27  3.6293416548112327e-27  3.6255915618225902e-27  3.5667340363269086e-27  3.6691055915291779e-27  3.5042626911472606e-27  3.6061046828948704e-27  3.7663862359941909e-27  3.6341017177582708e-27  3.5410472904523688e-27  3.5961258987135709e-27  3.6168747262593966e-27  3.6617767549711285e-27  3.6325235481325054e-27  3.5637006571765598e-27  3.6442447305532524e-27  3.5875560644979430e-27  3.6345630069188374e-27  3.6247904598621513e-27  3.6715867343870235e-27  3.6583793621207744e-27  3.6264106850516585e-27  3.5855395900293913e-27  3.6465568042308393e-27  3.5690139156424388e-27  3.6463768088339031e-27  3.6105830508712318e-27  3.6574865601738253e-27  3.6289953698778006e-27  3.5950528330696590e-27  3.5850503873638783e-27  3.5724793742085508e-27  3.6183256016088745e-27  3.6204090824486221e-27  3.4015670652575405e-27  3.6351461424540439e-27  3.6654276113104514e-27  3.6315368371417902e-27  3.5998744023962179e-27  3.6221964656999256e-27  3.6292987869665769e-27  3.6595827084149942e-27  3.6392110288376371e-27  3.4838030201701864e-27  3.5736689549028973e-27  3.9913391900439380e-27  3.5993590443589581e-27  3.5845128629956667e-27  3.7103529127307751e-27  3.6055811981967816e-27  3.6383087027531704e-27  3.5707413684766773e-27  3.6554306677528027e-27  3.6453964155329036e-27  3.5735552390285198e-27  3.5989625938152915e-27  3.6653323959113888e-27  3.6324337813137612e-27  3.6718588353944291e-27  3.6668298957494075e-27  3.3700889998131497e-27  3.6452032383707896e-27  3.6119398873577052e-27  3.6031837508849799e-27  3.5927639294663013e-27  3.6112764452486321e-27  3.6328782487593322e-27  3.6241959842306922e-27  3.5319185625210361e-27  3.5647716901220622e-27  3.6401952335145695e-27  3.6041525803935636e-27  3.6140864201382726e-27  3.6839292508373171e-27  3.5201971386884410e-27  3.6030595780916550e-27  3.6021909212317601e-27  3.6450168720263945e-27  3.5725715557618097e-27  3.5792220920731339e-27  3.6179121919687052e-27  3.5999710749396655e-27  3.8838897119661347e-27  3.7639726323910994e-27  3.5774919387604391e-27  3.6263209104730545e-27  3.6138235947588652e-27  3.6652733131842631e-27  3.6316525124010321e-27  3.4984180685387901e-27  3.4016726543543344e-27  3.3537420197490702e-27  3.9353722425826373e-27  -2.9344580235172601e-28  3.2139315975353364e-27  3.5212278479340593e-27  4.2771677738820704e-27  2.9550893332406469e-27  3.5438710149137991e-27  4.0074746436418009e-27  3.2561516822888025e-27  3.7970557258325037e-27  3.1105733565899753e-27  3.4919471043932545e-27  3.9452895404424350e-27  5.0966920870507636e-27  3.5536137110821899e-27  3.3222058654811950e-27  3.6280446423196393e-27  3.2569894625266848e-27  3.1062565987303064e-27  3.6766532186600870e-27  3.6412181154512165e-27  3.6735334462628169e-27  3.6225038320257491e-27  3.6264166016302098e-27  3.5232403035622623e-27  3.6397038198253128e-27  3.5846240933547334e-27  3.6565255350521383e-27  3.6203716047268151e-27  3.5967337193122044e-27  3.5702328471306547e-27  3.6087770098973459e-27  3.5976233696315989e-27  3.6280724549328110e-27  3.6452426192782887e-27  3.4327664809640393e-27  3.7225669823845046e-27  3.6712033158489472e-27  3.6600685262890779e-27  3.5462552912487736e-27  3.5681486276204974e-27  3.5933182475002611e-27  3.6007907487557906e-27  3.6424639496802405e-27  3.7271209272493822e-27  3.5783892264443290e-27  3.5682949705357018e-27  3.4650389911537747e-27  3.8264820398286256e-27  3.6918084307142117e-27  3.9250671454576717e-27  3.4672899183526966e-27  3.4433167984308037e-27  3.5968457661421303e-27  3.6208556251518763e-27  3.6650684845441857e-27  3.6095110762231334e-27  3.6044235967718152e-27  3.4038475696196268e-27  3.8199648613391337e-27  3.6892581375437918e-27  3.4938952732601869e-27  3.8353861111779778e-27  3.5586857568654878e-27  3.4865687047975023e-27  3.7056518916781722e-27  3.4857736095620666e-27  3.8350075021245263e-27  3.5410698043256060e-27  3.6117678942183751e-27  3.7337508669832410e-27  3.5308834943107371e-27  3.6339428124822483e-27  3.6058758620706414e-27  3.6769883500696715e-27  3.6231271731605013e-27  3.4594258580329099e-27  3.7176624887494844e-27  3.5377477964707338e-27  3.5875428886201609e-27  3.7763054974633734e-27  3.7709333320713015e-27  3.6584468856344946e-27  3.6292637728139476e-27  3.5794490236883983e-27  3.5489154603136052e-27  3.5806593264785348e-27  3.5809618717088183e-27  3.5936338050695878e-27  3.6564033206706686e-27  3.7459144306013135e-27  3.5894112149606174e-27  3.5959549156447140e-27  3.6267960230789716e-27  3.6768659504747512e-27  3.6883090319217937e-27  3.6042842186618196e-27  3.6528055054817244e-27  3.5656730579877780e-27  3.6563788205101432e-27  3.6258370971625566e-27  3.5715552042619207e-27  3.6506948173253872e-27  3.6221220269756061e-27  3.5612355410965598e-27  3.7142467744614172e-27  3.3579161877920046e-27  3.6663060404634020e-27  3.6470466182442710e-27  3.5024323194524356e-27  3.6213616614875550e-27  3.6066661571993345e-27  3.6491483197388488e-27  3.5866670445161320e-27  3.5876137697931625e-27  3.6531547040181092e-27  3.6223099042673065e-27  3.6506556856755713e-27  3.5597842112372772e-27  3.5979065281123090e-27  3.5610914104339951e-27  3.6172631753051238e-27  3.5975377884112563e-27  3.6048371421924961e-27  3.7096307786235519e-27  3.9938865212601658e-27  3.5999254085782259e-27  3.5385923745143414e-27  3.7107127010556854e-27  3.6729764404056680e-27  3.6514726718040069e-27  3.6085654490599982e-27  3.6677359519172203e-27  3.6450269065760453e-27  3.3677539213772822e-27  3.6006019690110640e-27  3.6164305107758603e-27  3.5494535985257453e-27  3.6090027222478865e-27  3.6198677147528766e-27  3.7328144350492352e-27  3.6002368717582711e-27  3.7052382705051607e-27  3.6238979330227745e-27  3.5600804373196410e-27  3.6600942946372225e-27  3.5282195203087056e-27  4.1988437530105606e-27  4.0046933174492829e-27  3.5436213611263001e-27  3.7191386050463053e-27  3.7776998060028732e-27  1.2373568115459738e-26  4.5029160282304934e-27  3.1903688171621446e-27  7.5909352195250139e-27  9.4860136920560650e-28  2.1430692225792749e-28  4.8612215954096425e-27  3.7637286274830120e-27  4.0359119902372218e-27  4.4358014795851830e-27  1.2466847859179690e-26  1.1555828299719815e-27  3.6756884233597401e-27  3.3981915861853223e-27  3.8858051190050370e-27  2.3710149805316864e-27  3.5475114267618727e-27  3.7013709213917822e-27  3.4374564672075926e-27  3.5393392858571969e-27  3.8897300564222634e-27  3.7191758992366468e-27  3.9466341914724703e-27  3.5902155017494595e-27  3.3499584679133036e-27  4.0587566180898258e-27  3.2426848055228500e-27  -9.5628441170294437e-27  4.1994378765898781e-27  9.0171934688644600e-27  2.9858305692200455e-27  5.371