<?xml version="1.0"?>
<VTKFile type="UnstructuredGrid"  version="0.1"  >
<UnstructuredGrid>
<Piece  NumberOfPoints="4651" NumberOfCells="20727">
<Points>
<DataArray  type="Float64"  NumberOfComponents="3"  format="ascii">-33.46713 35.789794 -27.111655  -30.985702 33.966886 -26.345189  -31.6828435 34.4395005 -24.8604795  -32.3309525 33.0809765 -25.848284  -31.194775 30.372159 -24.584913  -29.8495245 31.2580685 -25.081818  -30.546666 31.730683 -23.5971085  -29.898557 33.089207 -22.609304  -29.2014155 32.6165925 -24.0940135  -28.504274 32.143978 -25.578723  -42.132673 23.06294 -28.791295  -40.312967 22.79049625 -28.701262  -40.604459 22.0161115 -28.8988445  -40.87983025 22.384583 -28.2450985  -39.6269875 21.706226 -27.698902  -38.784753 21.74366775 -28.8088115  -39.06012425 22.11213925 -28.1550655  -39.35161625 21.3377545 -28.352648  -39.076245 20.969283 -29.006394  -38.493261 22.5180525 -28.611229  -41.2904385 23.10038175 -29.9012045  -41.56580975 23.46885325 -29.2474585  -40.9989465 23.8747665 -29.703622  -39.4707325 22.827938 -29.8111715  -39.74610375 23.1964095 -29.1574255  -40.72357525 23.506295 -30.357368  -40.448204 23.1378235 -31.011114  -41.85730175 22.6944685 -29.445041  -41.5819305 22.325997 -30.098787  -40.03759575 22.42202475 -29.355008  -40.32908775 21.64764 -29.5525905  -41.01506725 22.73191025 -30.5549505  -41.031188 21.589054 -31.406279  -39.7622245 22.05355325 -30.008754  -40.0537165 21.2791685 -30.2063365  -41.30655925 21.9575255 -30.752533  -40.739696 22.36343875 -31.2086965  -39.86522 24.686593 -30.615949  -39.17924050000001 23.60232275 -29.613589  -40.156712 23.91220825 -30.8135315  -40.43208325000001 24.28067975 -30.1597855  -37.121302 20.349512 -26.606509  -37.8072815 21.43378225 -27.608869  -38.0987735 20.6593975 -27.8064515  -38.37414475 21.027869 -27.1527055  -47.35853 10.924067 -27.817879  -45.246866 11.45253725 -28.071133  -45.66002275 11.71429875 -27.3005915  -45.6943715 10.6509055 -27.69485675  -44.030213 10.377744 -27.5718345  -43.5827075 11.17937575 -27.94811075  -43.99586425 11.44113725 -27.17756925  -43.9615155 12.5045305 -26.783304  -43.54835875000001 12.242769 -27.5538455  -43.135202 11.9810075 -28.324387  -46.9110245 11.72569875 -28.19415525  -46.46351900000001 12.5273305 -28.5704315  -44.79936050000001 12.254169 -28.44740925  -45.21251725 12.5159305 -27.67686775  -46.10752825 10.912667 -26.92431525  -44.8565265 10.901267 -26.0307515  -44.409021 11.70289875 -26.40702775  -44.44336975 10.6395055 -26.801293  -45.568508 14.130594 -29.322984  -44.351855 13.05580075 -28.8236855  -44.76501175 13.31756225 -28.053144  -46.0160135 13.32896225 -28.94670775  -42.354523 10.878467 -24.243624  -41.94136625 10.6167055 -25.0141655  -43.15801925 11.69149875 -25.513464  -43.192368 10.6281055 -25.90772925  -42.7448625 11.42973725 -26.2840055  -42.77921125 10.366344 -26.67827075  -41.5282095 10.354944 -25.784707  -43.60552475 10.889867 -25.13718775  -40.701896 9.831421000000001 -27.32579  -41.11505275 10.0931825 -26.5552485  -42.33170575 11.16797575 -27.054547  -42.3660545 10.1045825 -27.44881225  -41.918549 10.90621425 -27.8250885  -45.563908 18.348066 -26.893842  -44.34709275 17.2338565 -26.548159  -44.348079 18.1650075 -25.942861  -44.76834825 17.366726 -25.73690925  -43.9727885 16.385386 -24.5799765  -43.13126375 17.050798 -25.597178  -43.551533 16.2525165 -25.39122625  -43.55251925 17.1836675 -24.78592825  -43.13225 17.981949 -24.99188  -43.1302775 16.119647 -26.202476  -42.381669 14.422706 -22.266111  -41.54014425 15.088118 -23.2833125  -41.9604135 14.2898365 -23.07736075  -43.17722875 15.404046 -23.42304375  -42.335704 16.069458 -24.44024525  -42.75597325 15.2711765 -24.2342935  -41.539158 14.156967 -23.8886105  -41.11888875 14.9552485 -24.09456225  -40.6986195 15.75353 -24.300514  -41.96139975 15.2209875 -22.47206275  -42.7569595 16.2023275 -23.6289955  -41.5411305 16.019269 -22.6780145  -41.119875 15.8863995 -23.48926425  -40.700592 17.615832 -23.089918  -40.69960575 16.684681 -23.695216  -41.12086125 16.8175505 -22.88396625  -42.33669025 17.000609 -23.83494725  -41.91543475 16.8677395 -24.646197  -41.9144485 15.9365885 -25.251495  -41.916421 17.7988905 -24.040899  -40.696647 13.891228 -25.51111  -40.69763325 14.822379 -24.905812  -41.1179025 14.0240975 -24.69986025  -42.33471775 15.138307 -25.04554325  -41.91346224999999 15.0054375 -25.856793  -44.118743 25.302534 -23.43754  -42.76705425 24.24730275 -23.47809  -42.76993350000001 25.0813095 -22.6047665  -43.2664675 24.2066155 -22.610093  -42.414192 23.110697 -21.782646  -41.41824475 24.02607825 -22.6453165  -41.91477875 23.15138425 -22.650643  -41.917658 23.985391 -21.7773195  -41.42112400000001 24.860085 -21.771993  -41.4153655 23.1920715 -23.51864  -40.709641 20.91886 -20.127752  -39.71369375 21.83424125 -20.9904225  -40.21022775 20.95954725 -20.995749  -41.06250325 22.05546575 -21.823196  -40.06655600000001 22.970847 -22.6858665  -40.56309 22.096153 -22.691193  -39.7108145 21.0002345 -21.863746  -39.2142805 21.8749285 -21.8584195  -38.7177465 22.7496225 -21.853093  -40.21310699999999 21.793554 -20.1224255  -40.56596924999999 22.93015975 -21.8178695  -39.716573 22.668248 -20.117099  -39.21715975 22.70893525 -20.985096  -41.5619165 22.0147785 -20.955199  -41.0653825 22.8894725 -20.9498725  -40.06943525 23.80485375 -21.812543  -38.72062575 23.58362925 -20.9797695  -40.5688485 23.7641665 -20.944546  -38.711988 21.081609 -23.59974  -38.71486725 21.91561575 -22.7264165  -39.21140124999999 21.04092175 -22.731743  -40.06367675 22.13684025 -23.55919  -48.892552 15.381405 -22.559494  -48.1351425 16.07628075 -23.5791065  -48.51483450000001 15.266923 -23.38233125  -46.88513925 15.951088 -22.6829235  -44.8777265 16.520771 -22.806353  -46.12772975 16.64596375 -23.702536  -46.50742175000001 15.836606 -23.50576075  -48.137117 15.152441 -24.2051685  -47.757425 15.96179875 -24.40194375  -47.377733 16.7711565 -24.598719  -47.26483125 15.14173025 -22.48614825  -45.63711050000001 14.9020555 -22.4128025  -46.88711375 15.02724825 -23.3089855  -45.2574185 15.71141325 -22.60957775  -48.51286 16.19076275 -22.75626925  -46.50544725 16.76044575 -22.87969875  -48.133168 17.0001205 -22.9530445  -47.75545049999999 16.8856385 -23.77588175  -47.373784 18.618836 -23.346595  -47.3757585 17.69499625 -23.972657  -47.753476 17.80947825 -23.14981975  -46.12575525 17.5698035 -23.076474  -47.381682 14.923477 -25.850843  -46.13167875 14.79828425 -24.95466  -46.12970425 15.722124 -24.328598  -46.50939625 14.91276625 -24.13182275  -44.879701 15.59693125 -23.432415  -45.259393 14.7875735 -23.23563975  -44.8816755 14.6730915 -24.058477  -47.37970749999999 15.84731675 -25.224781  -47.7593995 15.037959 -25.02800575  -43.63167225 14.54789875 -23.162294  -43.62969775000001 15.4717385 -22.536232  -44.00938975 14.66238075 -22.33945675  -50.19105 12.415688 -21.510677  -48.56280674999999 11.4039275 -21.88864725  -48.8853695 11.5477145 -21.1196025  -50.19317225 11.5784405 -21.9090425  -50.1952945 10.741193 -22.307408  -48.564929 10.56668 -22.28701275  -48.88749175 10.710467 -21.517968  -47.579689 10.679741 -20.728528  -47.25712625 10.535954 -21.49757275  -46.9345635 10.392167 -22.2666175  -49.86848725 12.271901 -22.27972175  -49.8706095 11.4346535 -22.67808725  -49.5459245 12.128114 -23.0487665  -48.240244 11.2601405 -22.657692  -50.199539 9.066698000000001 -23.104139  -48.56705125 9.729432500000001 -22.68537825  -48.89173625 9.035972000000001 -22.314699  -48.889614 9.873219500000001 -21.9163335  -47.58181125 9.8424935 -21.1268935  -47.5839335 9.005246 -21.525259  -47.2592485 9.6987065 -21.89593825  -49.874854 9.760158499999999 -23.47481825  -50.19741675 9.903945499999999 -22.7057735  -49.87273175 10.597406 -23.07645275  -49.550169 10.453619 -23.8454975  -48.24236625 10.422893 -23.0560575  -48.900799 11.84054 -24.586856  -47.91768125 11.1163535 -23.42673675  -49.22548399999999 11.1470795 -24.21617675  -49.54804675 11.2908665 -23.447132  -49.22336175 11.984327 -23.81781125  -44.968328 8.943794 -19.946379  -45.95144575 9.667980500000001 -21.10649825  -46.27613075 8.97452 -20.735819  -46.2740085 9.8117675 -20.3374535  -51.756707 9.930889000000001 -18.880442  -50.74565 10.7548815 -18.9482525  -50.97927475 10.115809 -18.6811585  -51.75773275 10.6570185 -18.4585015  -51.52308225 10.5699615 -19.147536  -51.21392525 10.202866 -17.992124  -51.2894575 11.209034 -19.41463  -50.2018425 10.300729 -18.481875  -50.9803005 10.8419385 -18.259218  -50.74667574999999 11.481011 -18.526312  -51.287406 9.756774999999999 -20.258511  -50.74462425 10.028752 -19.370193  -51.28843175 10.4829045 -19.8365705  -51.5220565 9.843831999999999 -19.5694765  -50.761299 8.8242455 -17.9767735  -50.48157075 9.56248725 -18.22932425  -50.71622125 9.64954425 -17.54028975  -51.4936535 9.46462425 -17.73957325  -51.259003 9.37756725 -18.42860775  -50.789702 9.203453249999999 -19.80667675  -51.0243525 9.290510250000001 -19.11764225  -50.24692025 9.47543025 -18.91835875  -50.5266485 8.7371885 -18.665808  -50.291998 8.650131500000001 -19.3548425  -49.116279 10.844683 -16.705239  -49.16135675 10.01938425 -17.14172275  -49.65906074999999 10.572706 -17.593557  -49.938789 9.83446425 -17.34100625  -49.7041385 9.74740725 -18.03004075  -49.98386675 9.0091655 -17.77749  -49.2064345 9.1940855 -17.5782065  -49.29659 7.543488 -18.451174  -49.25151225 8.36878675 -18.01469025  -49.74921625 8.9221085 -18.4665245  -50.0289445 8.18386675 -18.21397375  -49.794294 8.09680975 -18.90300825  -43.40740425 25.48068925 -24.48671425  -42.36964775 25.01769025 -23.3772495  -43.625931 25.747322 -23.83400675  -43.133119 26.19211 -24.2304735  -41.658309 25.1958455 -24.42642375  -42.91459225 25.92547725 -24.883181  -41.87683575 25.46247825 -23.77371625  -40.6205525 24.7328465 -23.316959  -42.6960655 25.6588445 -25.5358885  -43.90021625 25.03590125 -24.0902475  -43.6816895 24.7692685 -24.742955  -43.1888775 25.2140565 -25.13942175  -42.151121 24.7510575 -24.029957  -43.244636 24.236003 -26.04837  -41.7140675 24.217792 -25.335372  -42.97035075 24.94742375 -25.792129
[...]
<PointData  Scalars="c_HbCO2"> 
<DataArray  type="Float64"  Name="c_HbCO2"  format="ascii">3.6504366811979651e-27  3.7233579884476582e-27  3.7550479871396669e-27  3.8088006307755084e-27  3.7078379141231002e-27  3.5841054520357629e-27  3.6154362010175620e-27  3.6616997784546494e-27  3.6684730536951155e-27  3.6494407119137814e-27  3.7782023970081654e-27  4.2543992522896695e-27  4.2659178786427496e-27  4.2307680769175459e-27  4.6128230805597685e-27  4.4389917349953586e-27  4.4449161612219872e-27  4.5431598920521145e-27  4.4962872176331738e-27  4.3855258782777705e-27  3.6209984450489651e-27  3.6614634422285292e-27  3.6943309749361558e-27  4.1445821132760920e-27  4.2328471667463101e-27  3.7394775676248716e-27  3.7031429256668499e-27  3.8272682445523596e-27  3.7218557767077965e-27  4.2300663714008521e-27  4.2605309649316826e-27  3.7752771748510098e-27  3.7439983274309359e-27  4.1363505738706763e-27  4.1316613704216575e-27  3.8145001905897112e-27  3.7296443104214335e-27  3.7298754276995580e-27  3.9973322294918670e-27  3.8564676160489351e-27  3.9569514976912329e-27  3.8082193111289119e-27  4.2522187408107205e-27  4.3623578814630024e-27  4.4059355636351881e-27  4.2410009498424523e-27  5.3260934115355646e-27  5.3525784633362287e-27  5.1775652043594419e-27  6.6040190088143293e-27  6.2482464697407886e-27  6.3880668415447490e-27  6.5834402798621737e-27  6.3311901186863546e-27  6.0080607800017234e-27  3.7894338846651066e-27  3.9623268490079547e-27  5.1357824573576585e-27  5.0985814120769536e-27  5.5192016656814576e-27  7.6901248347529988e-27  6.8560840052547853e-27  6.7991531703812555e-27  3.8673989660758950e-27  4.8970696406380827e-27  5.0293611399447309e-27  3.9014605679683671e-27  5.0128601126578807e-27  3.8294370910420342e-27  5.5873056626870095e-27  5.7729372671316758e-27  5.5868019885695055e-27  5.6815337225844156e-27  4.0862229669807042e-27  6.2453338216780995e-27  3.9048195718753472e-27  3.7074118379603014e-27  5.4164161050413603e-27  5.6243185210274751e-27  5.4130868119173420e-27  3.8678323401068448e-27  4.8758334189820615e-27  4.9560455626806829e-27  5.0496576267142059e-27  6.6054882571032519e-27  5.9344087666767783e-27  6.3432721683424384e-27  6.2944752326686897e-27  5.9895372014602235e-27  6.0065114414176806e-27  4.7393194289480553e-27  4.1201028462513871e-27  3.8358026874265228e-27  5.6274909240617624e-27  5.3596141539732997e-27  5.5898097384728708e-27  4.0568591607282698e-27  3.8513296831748255e-27  3.9118758512647143e-27  3.9115446645380498e-27  5.6630652044799734e-27  4.0289174313678866e-27  3.8721528495809435e-27  3.9027490036615179e-27  3.8908928952474548e-27  3.7117950033682617e-27  5.4407895452577688e-27  5.3563410786934515e-27  5.2497014551760689e-27  5.3638790296966998e-27  3.9002946796995025e-27  3.9147230878604847e-27  3.6928212044138415e-27  5.4311618038552487e-27  5.4164817567668857e-27  3.8041548008393166e-27  4.6195598707867970e-27  4.5953605547791713e-27  4.6711169453867850e-27  5.6479134875813008e-27  5.1503769423902411e-27  5.4529256953095893e-27  5.4374994072237604e-27  5.1877380239958284e-27  5.2077906971908106e-27  3.9018604333832277e-27  4.1626665725936935e-27  4.0294644894132102e-27  4.8744786810526033e-27  4.6567138813542057e-27  4.7665531386778960e-27  3.8550396036033161e-27  3.8684882952726804e-27  3.8186020373057018e-27  3.8941024190549421e-27  4.7309316244398162e-27  3.8542086215071222e-27  3.9916784864426353e-27  5.1609339349895510e-27  5.0489897715504239e-27  4.7379488538658602e-27  3.7431930546338838e-27  4.8698909362940130e-27  3.7863488407027900e-27  3.8016387755665955e-27  3.8266275723608665e-27  4.7219132968455507e-27  3.0743156477002824e-26  5.1893670747272264e-28  3.0020955457304285e-27  4.7018223073160973e-27  7.8196989104011597e-27  5.8289113171283817e-27  4.8413852084989552e-27  7.0478282832844504e-27  3.9894225565780012e-27  4.3550829586298608e-27  -2.3834890293520952e-27  1.2935229484748599e-26  6.0605041412308800e-27  7.1346673678348461e-27  4.3828783475041964e-28  5.0527329409398126e-27  6.9934252988013424e-27  4.0020187732446664e-27  4.4429010075517394e-27  3.4753260510110317e-27  4.4359442327579659e-27  5.1970118074030983e-27  4.3423689104328995e-27  5.5120061892111594e-27  4.9271837496803952e-27  4.9521863029089293e-27  6.6058875321633766e-27  6.9066133287833801e-27  7.7208062328612512e-27  3.6483871755952008e-27  4.0311391126883332e-27  6.2660987549455320e-27  5.7982407012846954e-27  5.7041391226170151e-27  1.6315370693019164e-24  -3.1977417804082330e-25  -2.1818689965736111e-24  2.0605814454629149e-26  1.0337412919096220e-24  -2.0563259017839513e-25  4.9239968638735686e-25  3.8227526023307937e-24  -1.0257155020828325e-25  4.3233128814722585e-25  -1.8143114448201776e-25  -1.3296605376117604e-25  1.6779641022272651e-25  2.2130164456262598e-27  9.7374687149361327e-25  -1.7620047959465129e-25  -1.1990485239185838e-24  -1.9187364399416937e-24  -2.7450892941931391e-24  4.8151516470649500e-24  -3.1211777632208302e-25  -1.5397469320659477e-25  -1.5194228961456064e-25  -1.3586335642989752e-25  1.2178914672273878e-25  -1.9525790799353158e-26  2.4766999273277594e-26  -5.8005977657749237e-26  1.1702323925959057e-26  -9.7093335391637573e-26  8.3442480619457964e-27  7.4100000994831272e-24  -3.6261125159348175e-25  -2.2918721861873401e-24  -3.5860530184261219e-24  5.8734965697001651e-24  -2.5650619297360801e-23  6.9029207044840743e-23  4.2848172491906477e-23  1.6326321971969818e-24  -2.3894288488724361e-22  4.7553727924554494e-24  5.5277229547197345e-23  3.0863636295940326e-23  -2.2534467891913241e-23  8.4128827566053575e-24  -8.5126055535999289e-24  -1.7339035595835780e-25  1.0372173982086376e-23  6.3999999999999997e-22  -2.1735496681552062e-22  6.3999999999999997e-22  6.3999999999999997e-22  -2.1761460183691119e-22  -7.1564050080035160e-24  -4.0417719807377445e-23  1.0549855820335351e-23  -2.4723694034234030e-22  4.7220746351610317e-23  6.3999999999999997e-22  6.3999999999999997e-22  -2.7309334632404151e-22  6.3999999999999997e-22  -2.2951748071878878e-22  6.3999999999999997e-22  6.3999999999999997e-22  6.3999999999999997e-22  6.3999999999999997e-22  -2.1559299121499474e-22  6.3999999999999997e-22  -2.5741049462771352e-22  3.5608838414610708e-27  4.6134485663662661e-27  3.8164558893744787e-27  3.7491588143687281e-27  4.4582031123838877e-27  3.7659280552497067e-27  4.5067186908938962e-27  4.9083507248863203e-27  3.7835023465113465e-27  3.8996087512789359e-27  3.7993629915965366e-27  3.7783615865946340e-27  4.5894160488046750e-27  3.8348953654347448e-27  4.5191219659413629e-27  3.7423428834629537e-27  4.4829868158359758e-27  4.8284300331743812e-27  4.3502346192630473e-27  4.7644286427684430e-27  3.8384940345034591e-27  3.7781150027896884e-27  4.2312548419753182e-27  4.3449488642052194e-27  4.3526915981275797e-27  4.6784426184536848e-27  4.7301614381494712e-27  4.6135077395893202e-27  3.8520372700682106e-27  3.8956563391985209e-27  3.8073906859491355e-27  4.4068381888563707e-27  4.4983095505080740e-27  4.5910552667544591e-27  3.7222552801366887e-27  4.0224578075604036e-27  3.9814799177622003e-27  4.0164447356726798e-27  4.2979608647842105e-27  4.2409244162458211e-27  4.2277863394579444e-27  4.0996290668744223e-27  4.1635554236158906e-27  4.1970047471649278e-27  3.7247542931673811e-27  3.5857247238083189e-27  4.0341336139473179e-27  4.0306096603304814e-27  3.6889739235029946e-27  3.9227077764978243e-27  3.9045172725489575e-27  4.0293900334392659e-27  3.7663180884969887e-27  3.9727623489723325e-27  3.9956273023194333e-27  3.8232366040563272e-27  3.7161773190325834e-27  3.8768031574070372e-27  4.0489013544546952e-27  4.0055468089693021e-27  3.9199543373196775e-27  3.9634422355326809e-27  3.9074344597317714e-27  4.2141751936693224e-27  3.4423425026843061e-27  -1.4651837168999101e-24  -4.8931695766368336e-25  -1.6417261566234040e-24  2.2296924920337263e-24  3.4367485806903782e-24  7.6693059036626282e-24  2.9268353561522811e-24  -2.6209779797228355e-22  -2.5231359691860918e-22  -2.5163860603048654e-24  -6.9135405389108412e-24  -1.3601197601393218e-23  4.6862671144616215e-23  4.4757039594821716e-23  3.1333417094102617e-23  -4.1497399568712352e-23  -2.5724772856179630e-24  -5.8022687056602492e-23  -1.8702047927839357e-23  2.3095053185166565e-24  -4.7127964833097366e-24  -2.6504975544975980e-24  6.0231185528985227e-24  -7.8489582837936874e-24  -9.6552434076539613e-24  6.5318093548253365e-24  -1.4419780619415020e-23  5.5481967048452722e-25  -1.9026347561123123e-24  6.3999999999999997e-22  -9.7834963063120313e-23  -2.2076141953554880e-22  -2.2764944825940083e-23  -2.3266981942904698e-24  6.3701017496594316e-23  4.7842033821555851e-23  7.8105861867754389e-24  -1.8994887022325355e-22  -1.6994101141426654e-24  4.9873047919266230e-23  -2.5612046286092415e-22  6.1669950749038586e-23  6.3999999999999997e-22  -2.5835175478320015e-22  -3.7363328425049990e-22  6.3999999999999997e-22  6.3999999999999997e-22  -1.4203145273067631e-24  -4.6430200336111011e-24  4.8707726670136175e-27  4.3803057093311798e-27  4.4196807443947873e-27  4.4253623854948738e-27  3.7895166016606414e-27  3.7885891417598720e-27  3.7528502701398746e-27  4.3124578218617040e-27  3.7223452391866736e-27  3.8666303166344293e-27  4.2435004803323127e-27  3.8052190036665927e-27  4.5946296596427894e-27  4.6153050574204198e-27  4.5750771698653880e-27  4.8682936174512553e-27  5.0484338597037385e-27  4.9626114311235782e-27  4.8510744533920465e-27  4.9103143509855898e-27  5.1882273549954557e-27  3.8163637924151943e-27  4.5532250613754344e-27  3.7510503977487939e-27  4.5077597058245289e-27  4.3537391641198015e-27  4.2410700471452530e-27  4.7322801419630795e-27  4.7249358381277616e-27  3.8925278753362143e-27  4.6708635088835225e-27  3.7987692817880601e-27  4.6711937631203255e-27  4.5032444963196543e-27  4.5351054479308382e-27  3.8144004958418932e-27  4.8043505735850331e-27  4.5930391617714763e-27  3.7395035991868543e-27  4.4782437678663769e-27  3.6339940571515558e-27  3.6664300444603399e-27  3.6854433601224021e-27  3.7700228241661040e-27  3.6145897511255038e-27  3.6360119288962494e-27  3.6707440431615278e-27  3.6602055989203552e-27  3.6006892137522063e-27  3.6451191773117891e-27  3.7017910580489874e-27  3.8467525424352715e-27  3.9624475284835827e-27  3.8492258242618868e-27  3.6752942374845673e-27  4.0127623878400629e-27  3.6506466310849343e-27  3.7926964511866793e-27  3.8812056827653853e-27  3.9435404562805926e-27  3.8770161606823068e-27  3.6489298078859875e-27  3.7229942702365710e-27  3.9075437079087093e-27  3.9219110434477555e-27  3.9114111250742717e-27  3.9925996991460211e-27  4.0638129864533514e-27  4.1959680200286883e-27  4.1618613507869073e-27  4.0921433274368430e-27  3.8021976966926374e-27  3.9772471222387024e-27  4.0356769558916958e-27  3.6462727755315852e-27  3.6789419364658200e-27  3.8785935641938650e-27  3.6773664065730315e-27  3.6823263312146705e-27  3.6638238227749549e-27  3.9340635951603102e-27  3.6507360860031710e-27  3.8264558915779454e-27  4.4821696748376554e-27  4.5177834829116339e-27  4.4091947969853686e-27  5.0238840421640150e-27  4.8736334539347804e-27  4.8385111949794214e-27  4.7649233373746006e-27  4.7461690152732076e-27  4.7101724930783810e-27  3.5738036807007379e-27  3.7461069371475308e-27  4.3925237124465348e-27  4.4171600456665576e-27  3.7381131111529612e-27  4.1291121121783883e-27  4.1806933728703827e-27  4.2008560598506680e-27  4.5970436137424928e-27  4.6168569313453306e-27  4.4974516821363485e-27  3.9352053101397826e-27  3.7899019799273690e-27  3.7631757438534452e-27  4.4561377035207581e-27  4.6572887762784207e-27  4.4150999922858466e-27  4.4939530688777456e-27  3.7872946792967533e-27  4.7442397651814306e-27  3.8090317683121466e-27  3.6943541465985464e-27  4.3678838339222273e-27  4.5031660488554652e-27  4.3635684089807495e-27  3.6388095443820164e-27  3.6385725076140305e-27  3.6606270130446228e-27  3.7332950756577272e-27  3.6150018339633224e-27  3.6148965776265915e-27  3.6394714622570533e-27  3.6481436771789370e-27  3.6036140883993869e-27  3.6287059577608340e-27  3.9657630788508208e-27  3.8492420237398066e-27  3.9544194744737547e-27  3.6849048620463687e-27  3.6556776579275200e-27  3.8434805840274583e-27  3.7795965067585334e-27  3.6175951961107270e-27  3.6760981325427158e-27  3.9843370063392370e-27  4.2445044843856562e-27  4.1311878352422375e-27  4.1733050535064415e-27  3.7089421245482388e-27  3.9901599726646104e-27  3.6535143051136486e-27  3.8273561053659120e-27  4.1564523521893661e-27  3.8257373553781509e-27  3.5272972845805630e-27  4.0358023632986314e-27  3.7585382941220022e-27  3.5471618806674671e-27  4.0870615950942150e-27  4.0819425995439187e-27  3.6749813426000525e-27  3.8736006589989391e-27  3.8629300129552889e-27  3.9101935976890557e-27  3.6582712087332624e-27  3.6743694058452896e-27  3.6941146166381862e-27  3.6602879948856420e-27  3.6553167454979633e-27  3.7470752740933035e-27  3.6380628170614491e-27  3.6654685338445355e-27  3.6884366087335747e-27  3.7672375149635543e-27  3.6217807859258020e-27  3.6636687179231595e-27  3.6626828156547582e-27  3.6006634574891381e-27  3.6429651044024230e-27  3.7662942120080748e-27  3.6705098253386375e-27  3.6726752443400408e-27  3.6512390024302028e-27  3.7681238503943143e-27  3.6202525238653063e-27  3.6419929429721330e-27  3.7384145986309962e-27  5.4854742938280791e-27  3.6106304915856527e-27  6.6107324260235276e-27  7.0114925358210913e-27  1.4640621998936679e-26  7.1067709876393030e-27  7.8126589938218077e-27  5.3886801652293639e-26  2.5437412939383379e-27  -4.0451111366032680e-28  -9.2516896044599971e-28  9.1701222928870648e-27  6.7922169062361288e-27  4.1765411131204753e-27  4.8245135563778253e-27  5.2906945966307447e-27  4.1706977718800781e-28  4.4778770508286990e-27  5.9780079696540126e-27  9.5027775718351737e-27  4.8071938893704526e-27  4.8096240797820427e-27  5.0872425638177539e-27  3.5356448404362212e-27  5.6697417590502522e-27  5.9504994933687137e-27  6.1637520858718624e-27  5.3375999362092270e-27  3.5605177171628807e-27  4.4330286082883708e-27  4.5753406047287641e-27  4.9638398876136006e-27  5.0470377052613069e-27  4.8508699034310131e-27  4.5554156527425456e-27  4.7259293081508194e-27  4.5021218063686353e-27  4.6686595213969250e-27  4.5358164351130426e-27  4.6747847001856306e-27  3.8131110073432417e-27  3.7408207808047650e-27  4.4789638838143431e-27  4.1310330671688376e-27  4.1203287056582419e-27  4.0872804827834562e-27  4.3823606780101162e-27  4.2404163004452763e-27  4.2542680823890281e-27  4.3433111728803757e-27  4.2962171363156848e-27  4.1953919333185678e-27  3.6143759457414200e-27  3.6336346402665186e-27  3.6572528235067773e-27  4.0294430362572947e-27  4.0810495400455023e-27  3.7171828642269726e-27  3.5845332589785194e-27  3.7961613928418948e-27  3.6543466135202454e-27  4.1008472717051264e-27  4.1187375390326372e-27  3.8381737367310267e-27  3.7261172320736323e-27  4.0202545810804703e-27  4.0129275032567256e-27  3.8421814277067475e-27  3.7308096146427328e-27  3.6776548240687816e-27  3.9276695606482142e-27  3.8214144298804957e-27  4.0125948592825584e-27  3.7197862557960845e-27  4.0503876338568364e-27  4.2163532661637271e-27  4.2505590414711032e-27  4.1787998131450398e-27  4.5279367844030904e-27  4.5984751804166270e-27  4.4439146854722430e-27  4.7080609885126958e-27  3.7863043703202939e-27  4.2045871214099171e-27  3.7646426846644138e-27  4.4530645785214409e-27  4.3502419447481309e-27  4.4108088147752661e-27  3.7913887777399289e-27  3.8397314832342659e-27  3.8408961850787628e-27  3.7312853836276679e-27  3.6879165534768190e-27  4.3631105138065997e-27  4.3317749480062922e-27  3.8430936131717131e-27  3.8213128109475461e-27  4.2475149754938134e-27  3.6892488596600971e-27  3.5243687965784054e-27  3.6547003436806259e-27  4.3388296082701143e-27  4.2707961689885269e-27  3.7779656209857428e-27  4.2435557373201713e-27  4.3210784165711082e-27  4.3106638477927881e-27  4.6948411257913858e-27  4.8037966158463036e-27  4.5967031014666570e-27  4.5099884501033442e-27  4.8699785535304394e-27  3.7532798337469300e-27  4.2936564633935016e-27  3.7213640499804158e-27  4.2022014184510488e-27  4.1938249942636222e-27  4.4377416677968366e-27  3.7736387289156469e-27  4.3421667859454336e-27  4.3199713492166797e-27  4.6713878371748882e-27  4.3633608396872168e-27  3.6713230423146275e-27  3.9698149502539925e-27  3.8603895069829619e-27  3.9931841898114653e-27  3.6787300370355804e-27  3.6571165755399780e-27  3.8460737712387679e-27  3.7555082099677990e-27  3.6042215921269921e-27  3.6769402278105904e-27  3.6428572600160455e-27  3.7206865348200875e-27  3.7368694327327360e-27  3.8129715398806036e-27  3.6128784959143851e-27  3.6197672189819617e-27  3.6766674754155997e-27  3.6261314069107542e-27  3.6778078630941659e-27  3.7135138362606376e-27  3.6596867415000429e-27  3.6622610696113388e-27  3.6309629803659571e-27  3.6249162188025932e-27  3.6784673096368105e-27  3.6442784339055670e-27  3.6320081122620367e-27  4.0280247126913939e-27  3.6630083135924790e-27  3.7358673976197555e-27  3.8061443746450434e-27  3.7880250133030039e-27  3.8360345882149547e-27  3.6479013276910376e-27  3.6671837550616938e-27  3.6498420604456666e-27  3.6548226311620966e-27  3.6477038491931721e-27  3.6900909711325258e-27  3.7032436780557911e-27  3.6527377227468686e-27  3.6297348569123256e-27  3.8121266245355199e-27  3.6235341976439776e-27  3.8338497075433685e-27  4.3697901380967530e-27  4.5171079820389998e-27  4.4802236684083580e-27  4.8433894739851178e-27  4.8710627432561615e-27  4.7443521493619035e-27  4.7655082399978867e-27  5.0296702933198900e-27  3.5971837823493326e-27  4.4155971849962130e-27  4.3901394454376264e-27  3.7493446986368086e-27  4.2024178179767062e-27  4.6186859664177442e-27  3.9460138399689484e-27  4.6522940560934972e-27  4.4890965824014519e-27  4.7267564151043955e-27  4.4996038221511757e-27  3.7793762298506150e-27  4.3195342104913107e-27  4.2524646875583301e-27  4.2294243065760056e-27  4.6251822909430585e-27  4.5581475270155591e-27  4.4608572489687087e-27  4.3882458448045650e-27  4.4518513978276776e-27  4.5077960110788278e-27  3.6662071117550386e-27  4.2654402723788407e-27  4.2272269994458193e-27  3.6911130137376907e-27  3.7224437029443659e-27  4.0130756721759881e-27  4.0525612987358440e-27  4.0089228115613655e-27  4.3810786735868833e-27  4.3453942276059725e-27  4.2967622762023315e-27  3.9715823978614659e-27  3.8451563186629706e-27  4.3618548106448802e-27  3.7356723596715521e-27  4.1496745796452425e-27  4.2598142164539596e-27  3.8446133866501481e-27  4.2220190613774077e-27  4.4104323607428571e-27  3.7140260280431285e-27  4.3713201434280227e-27  3.6793798282425638e-27  4.1557112768558404e-27  4.2215210457000354e-27  3.6901571812589240e-27  3.9273666046066320e-27  3.9099326647623788e-27  4.0278492328751610e-27  3.9932691684321581e-27  3.9738806473585204e-27  4.1949168425674583e-27  4.1436098595438698e-27  4.0926582685760112e-27  3.7574686733330279e-27  4.0503473419373540e-27  3.8766866748558645e-27  3.9088002842630194e-27  4.0100049576127126e-27  3.6875382198685708e-27  3.9611595959159738e-27  3.7995285578050303e-27  3.8271327698090955e-27  4.0667191607612247e-27  3.5616882287328489e-27  3.6342893238840860e-27  3.4340020501349224e-27  4.0524204307075229e-27  3.4947314311981261e-27  4.1542428950420704e-27  1.7194478772130917e-27  5.0684485543089631e-27  1.8261472771145687e-26  6.3674629409062536e-27  6.2030233490308415e-26  1.2131516987152225e-26  1.4363924835341198e-28  6.4698962029698701e-27  2.0890876568666890e-26  4.3225835983015900e-27  3.6661140205365316e-27  3.6932574857344302e-27  3.7273598401930081e-27  4.2643200347157047e-27  4.5084590659839475e-27  4.2018095533027792e-27  4.4352512270781330e-27  4.3773058343407505e-27  4.1200874253246630e-27  4.3413322389112147e-27  4.3813678548751596e-27  3.7379824286805049e-27  3.7980414968097451e-27  4.1944534510171601e-27  4.1971970257383822e-27  4.1215994358573800e-27  3.6529763417189369e-27  3.7838513118123152e-27  3.6929961279881852e-27  3.8489669453939991e-27  4.0494737815862388e-27  3.9727518169671768e-27  4.2468919902401969e-27  4.3633430491202156e-27  3.6281614166060603e