<?xml version="1.0"?>
<VTKFile type="UnstructuredGrid"  version="0.1"  >
<UnstructuredGrid>
<Piece  NumberOfPoints="5067" NumberOfCells="21972">
<Points>
<DataArray  type="Float64"  NumberOfComponents="3"  format="ascii">-50.199326 -20.506615 13.982361  -48.274421 -20.771295 14.32457175  -48.571912 -20.0502745 14.38335  -48.89138325 -19.850365 13.6308805  -47.58344049999999 -19.194115 13.2794  -46.96647824999999 -20.115045 13.97309125  -47.26396925 -19.3940245 14.0318695  -46.944498 -19.593934 14.784339  -46.647007 -20.3149545 14.72556075  -46.349516 -21.035975 14.6667825  -48.59389225 -20.5713855 13.57210225  -47.2859495 -19.9151355 13.22062175  -46.9884585 -20.636156 13.1618435  -46.66898725 -20.8360655 13.914313  -49.87985475 -20.7065245 14.7348305  -49.5603835 -20.906434 15.4873  -47.95494975 -20.9712045 15.07704125  -48.25244075 -20.250184 15.1358195  -48.921441 -21.306253 16.992239  -47.6354785 -21.171114 15.82951075  -47.9329695 -20.4500935 15.888289  -49.24091225 -21.1063435 16.2397695  -44.967555 -17.881615 12.576439  -44.670064 -18.6026355 12.51766075  -45.6585355 -19.458795 13.62161075  -45.97800675 -19.2588855 12.86914125  -45.36104450000001 -20.1798155 13.5628325  -45.68051575 -19.979906 12.810363  -44.372573 -19.323656 12.4588825  -45.95602649999999 -18.7377745 13.680389  -46.27549775 -18.537865 12.9279195  -43.777591 -20.765697 12.341326  -44.075082 -20.0446765 12.40010425  -45.0635535 -20.900836 13.50405425  -45.38302475 -20.7009265 12.75158475  -48.89116575 -20.27846175 12.91154275  -47.583223 -19.62221175 12.56006225  -47.285732 -20.34323225 12.501284  -47.5830055 -20.0503085 11.8407245  -44.966685 -19.594002 9.699088  -44.6694115 -19.88692575 10.3596475  -44.9669025 -19.16590525 10.41842575  -46.27484525 -19.82215525 10.76990625  -45.97757175 -20.115079 11.43046575  -46.27506275 -19.3940585 11.489244  -44.96711999999999 -18.7378085 11.1377635  -44.669629 -19.458829 11.07898525  -44.372138 -20.1798495 11.020207  -44.9673375 -18.30971175 11.85710125  -46.27528024999999 -18.96596175 12.20858175  -45.97778925 -19.68698225 12.1498035  -44.6698465 -19.03073225 11.798323  -44.3723555 -19.75175275 11.73954475  -45.68029825 -20.40800275 12.09102525  -44.0748645 -20.47277325 11.6807665  -52.226008 -18.208582 8.768789999999999  -51.211489 -18.35377025 9.550091999999999  -51.44407825 -17.66417 9.587869749999999  -51.44407825 -18.04174375 8.93389275  -50.6621485 -17.8749055 9.098995500000001  -50.42955925 -18.186932 9.71519475  -50.6621485 -17.49733175 9.7529725  -50.6621485 -17.119758 10.4069495  -50.42955925 -17.80935825 10.36917175  -50.19697 -18.4989585 10.331394  -51.99341875 -18.5206085 9.38498925  -51.7608295 -18.832635 10.0011885  -50.97889975 -18.66579675 10.16629125  -51.211489 -17.9761965 10.204069  -52.226008 -17.83100825 9.422767  -52.226008 -17.4534345 10.076744  -51.44407825 -17.28659625 10.24184675  -51.99341875 -18.14303475 10.03896625  -52.226008 -16.698287 11.384698  -51.44407825 -16.9090225 10.89582375  -51.99341875 -17.38788725 11.34692025  -52.226008 -17.07586075 10.730721  -51.211489 -17.59862275 10.858046  -51.99341875 -17.765461 10.69294325  -51.7608295 -18.0774875 11.3091425  -51.295651 -19.456688 11.233587  -50.7463105 -18.97782325 10.7824905  -50.97889975 -18.288223 10.82026825  -51.52824025 -19.1446615 10.61738775  -51.52824025 -18.76708775 11.27136475  -51.7608295 -18.45506125 10.6551655  -49.098289 -17.541229 9.429201000000001  -49.6476295 -18.02009375 9.880297500000001  -49.88021875 -17.3304935 9.918075250000001  -49.88021875 -17.70806725 9.26409825  -48.899791 -23.63693 13.642066  -47.61825575 -23.33099875 12.48870225  -47.26214299999999 -23.68357075 13.1788635  -48.5214565 -24.4505235 13.4659525  -48.14312200000001 -25.264117 13.289839  -47.23992125 -24.14459225 12.31258875  -46.8838085 -24.49716425 13.00275  -45.624495 -23.7302115 12.715661  -45.98060775 -23.3776395 12.02549975  -46.3367205 -23.0250675 11.3353385  -47.386453 -26.891304 12.937612  -46.86158675 -24.95818575 12.13647525  -46.48325225000001 -25.77177925 11.96036175  -46.1271395 -26.12435125 12.650523  -44.867826 -25.3573985 12.363434  -45.60227325 -24.191233 11.84938625  -45.22393875 -25.0048265 11.67327275  -45.5800515 -24.6522545 10.9831115  -45.958386 -23.838661 11.159225  -46.505474 -25.31075775 12.8266365  -45.2461605 -24.543805 12.5395475  -47.7647875 -26.0777105 13.1137255  -43.77365 -22.413205 9.028611  -45.05518525 -22.71913625 10.18197475  -43.41753725 -22.765777 9.718772250000001  -44.67685075 -23.53272975 10.00586125  -44.6990725 -23.07170825 10.872136  -44.32073800000001 -23.88530175 10.6960225  -43.0614245 -23.118349 10.4089335  -42.349199 -23.823493 11.789256  -44.34295975 -23.42428025 11.56229725  -42.70531175 -23.470921 11.09909475  -43.96462525 -24.23787375 11.38618375  -43.6085125 -24.59044575 12.076345  -43.986847 -23.77685225 12.2524585  -45.989047 -16.866138 10.027009  -45.733674 -17.12000725 10.6643665  -46.5109845 -17.28878 10.5149145  -45.4780835 -17.80197325 10.58238625  -45.2227105 -18.0558425 11.21974375  -46.000021 -18.22461525 11.07029175  -47.032922 -17.711422 11.00282  -46.2556115 -17.54264925 11.152272  -45.478301 -17.3738765 11.301724  -46.255394 -17.970746 10.43293425  -45.7334565 -17.548104 9.945028749999999  -45.222493 -18.48393925 10.500406  -45.477866 -18.23007 9.8630485  -46.510767 -17.71687675 9.79557675  -47.0327045 -18.13951875 10.28348225  -47.032487 -18.5676155 9.564144500000001  -46.2551765 -18.39884275 9.713596500000001  -46.7663575 -17.03491075 9.877556999999999  -47.288295 -17.45755275 10.3654625  -47.2880775 -17.8856495 9.64612475  -47.543668 -17.2036835 9.728104999999999  -48.3209785 -17.37245625 9.578652999999999  -48.065388 -18.05442225 9.496672750000002  -48.0656055 -17.6263255 10.2160105  -45.22227549999999 -18.912036 9.781068250000001  -45.9998035 -18.652712 10.350954  -45.999586 -19.08080875 9.63161625  -45.222928 -17.62774575 11.9390815  -46.00023849999999 -17.7965185 11.7896295  -50.197494 -22.366079 10.768942  -49.87306825 -22.68379175 11.487223  -48.59251825 -21.9659835 11.162038  -50.197952 -21.901213 11.57229675  -50.19841 -21.436347 12.3756515  -49.87352625 -22.21892575 12.29057775  -48.59297625 -21.5011175 11.96539275  -46.9875425 -21.565888 11.555134  -48.2680925 -22.28369625 11.880319  -49.5486425 -23.0015045 12.205504  -48.59343425 -21.0362515 12.7687475  -49.87444225 -21.28919375 13.89728725  -48.2685505 -21.81883025 12.68367375  -46.9880005 -21.101022 12.35848875  -48.2690085 -21.35396425 13.4870285  -49.5495585 -22.0717725 13.8122135  -50.198868 -20.971481 13.17900625  -49.87398425 -21.75405975 13.0939325  -47.94366675000001 -22.601409 12.5986  -47.619241 -22.91912175 13.316881  -47.94412475 -22.136543 13.40195475  -46.66357475 -21.41873475 13.07676975  -46.338691 -22.2013135 12.991696  -46.66311675 -21.88360075 12.273415  -49.22467475000001 -22.85435125 13.72713975  -49.54910049999999 -22.5366385 13.00885875  -49.22421675 -23.31921725 12.923785  -45.38256675 -21.1657925 11.94823  -45.058141 -21.48350525 12.666511  -48.921123 -25.370475 9.953027000000001  -48.5378025 -26.15715175 9.6608295  -47.277956 -25.665724 8.493979  -47.28411800000001 -25.354711 9.46562525  -45.647113 -25.338947 8.9782235  -46.8946355 -26.45240075 8.201781499999999  -46.9007975 -26.14138775 9.17342775  -45.640951 -25.64996 8.006577249999999  -45.634789 -25.960973 7.034931  -48.154482 -26.9438285 9.368632  -48.91496100000001 -25.681488 8.98138075  -47.271794 -25.976737 7.52233275  -48.908799 -25.992501 8.0097345  -48.5316405 -26.46816475 8.689183249999999  -47.387841 -28.517182 8.784236999999999  -46.1341565 -27.71474125 8.589032749999999  -46.511315 -27.2390775 7.909584  -46.517477 -26.9280645 8.88123025  -45.2637925 -26.12562375 8.686026  -45.2576305 -26.43663675 7.71437975  -44.880472 -26.9123005 8.3938285  -47.77116150000001 -27.73050525 9.0764345  -47.7649995 -28.04151825 8.104788249999999  -48.14832 -27.2548415 8.396985749999999  -48.142158 -27.5658545 7.4253395  -42.373103 -25.307419 8.00342  -43.6267875 -26.10985975 8.19862425  -44.003946 -25.634196 7.5191755  -44.010108 -25.323183 8.49082175  -45.989047 -18.19909 7.334892  -46.5184765 -18.99427925 6.99578375  -46.772279 -18.3362925 7.182125  -46.772279 -18.5628875 6.466115  -47.555511 -18.926685 5.597338  -47.3017085 -19.35807675 6.12700675  -47.555511 -18.70009 6.313348  -47.555511 -18.473495 7.029358  -47.3017085 -19.13148175 6.84301675  -47.047906 -19.7894685 6.6566755  -45.7352445 -18.85707675 7.14855075  -45.989047 -18.425685 6.618882  -45.989047 -18.65228 5.902872  -46.5184765 -19.22087425 6.27977375  -45.7352445 -19.08367175 6.43254075  -45.481442 -19.5150635 6.9622095  -46.264674 -19.652266 6.8094425  -49.121975 -18.7479 6.723824  -48.0849405 -19.26868425 6.69024975  -48.33874299999999 -18.6106975 6.876590999999999  -48.33874299999999 -18.8372925 6.160581  -44.973837 -20.831037 6.589527  -46.0108715 -20.31025275 6.62310125  -45.2276395 -20.17305025 6.77586825  -45.481442 -19.7416585 6.2461995  -50.19865 -23.719441 7.31325  -49.960104 -22.67102675 6.481738  -48.89244675 -22.99734 7.13231925  -49.92948125 -22.47655575 7.1658935  -49.6603125 -21.2336705 7.018537  -48.65390075000001 -21.94892575 6.30080725  -49.69093525 -21.4281415 6.3343815  -48.623278 -21.75445475 6.98496275  -47.5862435 -22.275239 6.9513885  -49.721558 -21.6226125 5.650226  -48.11556325 -19.46315525 6.00609425  -48.35410925 -20.5115695 6.83760625  -49.4217665 -20.18525625 6.187025  -49.39114375 -19.99078525 6.871180499999999  -47.24193624999999 -23.173803 14.106308  -46.88483825 -23.938252 13.9682905  -44.8698855 -24.239574 14.294515  -45.2269835 -23.475125 14.4325325  -45.60428825 -23.22044375 13.6431055  -45.96138625 -22.45599475 13.781123  -45.5840815 -22.710676 14.57055  -45.981593 -22.9657625 12.8536785  -45.24719025 -23.98489275 13.505088  -48.52248625 -23.89161125 14.431493  -46.50753349999999 -24.19293325 14.7577175  -46.8646315 -23.42848425 14.895735  -48.1451815 -24.1462925 15.22092  -47.390572 -24.655655 16.799774  -47.76
[...]
<PointData  Scalars="c_HbCO2"> 
<DataArray  type="Float64"  Name="c_HbCO2"  format="ascii">1.9668542725567334e-24  -3.4319155099934642e-25  -3.3879767297953198e-25  -5.2360956711171351e-24  9.9196875644540207e-24  -6.4947206889549892e-25  -1.9680029860717253e-24  3.7199472943537513e-25  1.0660816722413772e-25  9.4779026087499028e-26  4.6364542677917907e-25  -2.2194223373028103e-24  6.7925401063678818e-25  4.4499158273763452e-26  -2.5079541517508051e-25  1.4335549286535733e-25  2.1972432267345973e-27  1.8118672827993832e-26  1.6724703850109251e-26  -3.1976795973972037e-26  -4.1470069532831899e-26  3.5113900794414460e-28  5.9331720666274296e-24  -5.7158660070568949e-25  -4.9405958628031514e-25  4.9758097116489275e-25  -1.0548092996678251e-25  3.4514942782003797e-25  7.7348194916976475e-25  -4.1429508512438499e-25  -8.0153235257749597e-24  1.3764564032291136e-25  1.2090773709154417e-25  -9.7961586170629841e-26  -5.8317988666080651e-26  -5.9961179721038236e-24  8.2951574153754899e-24  -1.6872770326907641e-24  8.4791422998059638e-24  8.8207745577146185e-24  -7.7771887694750961e-25  2.4937482205695287e-24  -5.7465464815162470e-24  4.8275611597167525e-25  -7.1476702272555069e-24  7.8601530451660261e-24  -8.9501523792117060e-25  9.8699105455584194e-25  1.6465410904217142e-24  -5.1408296504740448e-24  4.8002272728457293e-25  -8.8648746050485055e-25  -5.6400804112177740e-25  -9.1208159874026788e-25  1.6108712509267719e-25  6.3999999999999997e-22  -2.3263066155355524e-22  6.3999999999999997e-22  6.3999999999999997e-22  6.3999999999999997e-22  -2.5821094372036215e-22  6.3999999999999997e-22  6.3999999999999997e-22  -2.4384422820751345e-22  5.7178231766444080e-23  -2.8940711821472208e-22  2.7932111367119524e-23  6.4358337004428081e-23  -2.4180915224567360e-22  6.3999999999999997e-22  6.3999999999999997e-22  6.3999999999999997e-22  -3.3756673689847453e-22  6.3999999999999997e-22  6.3999999999999997e-22  -4.0745596081258310e-22  6.3999999999999997e-22  -2.4959179096850744e-22  -3.3017952087043830e-22  6.1686653200431589e-24  9.4432474353955024e-24  -8.9266437516486894e-24  -4.4809174029731914e-23  6.9475991084242807e-24  1.2093267198576726e-23  1.8066677072041709e-23  6.3999999999999997e-22  -2.4929126229328110e-22  6.3999999999999997e-22  6.3999999999999997e-22  3.8004363849422117e-26  5.0033916683800165e-27  -8.0572677241666760e-27  5.1121848733837066e-27  1.0141879763424140e-26  -1.0359452361688658e-26  7.8375895723402343e-27  1.8285797849312344e-26  5.5370385260486860e-27  9.1139742913569867e-26  5.3736629845925701e-27  -2.5397182615129487e-27  3.9622644038527758e-27  6.1838387660209786e-27  9.1239796440595259e-27  -9.6439822765520160e-28  8.5836095050629155e-27  2.0068267977739491e-26  9.7075150423898393e-27  4.6241017142580669e-27  8.6928463822018796e-27  5.1600314487987997e-27  1.4058824798196757e-25  -2.6383711987858211e-26  -1.3780041066927048e-27  -9.9440662135775329e-27  -1.5896358200416820e-26  1.1995111718454530e-26  2.2017553209968387e-26  6.6662352768171214e-27  -6.5588826554237084e-27  5.1940733130392871e-27  4.7617599983567123e-27  7.5917079383893066e-27  4.8794450206453571e-27  6.3999999999999997e-22  -1.1480540083663068e-22  -2.0916397747785226e-22  -2.6159444515089760e-23  -1.8094647668398898e-24  -1.0407135826679772e-23  5.2609089304876298e-23  6.0244821942528630e-23  5.0615404930414557e-23  6.1106112844952037e-24  -1.8547767505153038e-22  -6.4226967915486480e-25  5.1707257194977732e-23  -2.6735764442194578e-22  3.9674455193337554e-23  5.0126426917728571e-23  6.2521261402140732e-23  6.3999999999999997e-22  -2.5170084406807874e-22  -2.5145615115507758e-22  6.3999999999999997e-22  6.3999999999999997e-22  -2.4046152219994236e-22  -3.0200654263294807e-22  -1.3486767225372995e-24  -2.0463982714280705e-23  -9.3905544676975465e-24  -2.5659454703686361e-24  -1.5720458788417131e-23  2.8789747088242958e-24  -6.9942888018595318e-25  -4.3942905302576808e-25  8.6130156936058455e-25  2.5403452956944691e-24  -5.9974894024360816e-25  -9.8022138124329380e-26  8.9040704035263587e-25  -8.8519839912982332e-26  2.3308705731301538e-25  -2.1058017167202163e-26  -6.7568639084217747e-25  -2.9302501409051337e-25  -5.5534136874973863e-25  -1.5797080146523734e-25  1.6022033977226485e-25  1.0909434923809856e-24  -6.6610649834574837e-25  -1.5377766735584593e-25  1.3486155146742440e-26  7.5390057187424975e-28  -4.8047268434351921e-26  8.0649055842152686e-26  -7.9881209169133502e-26  2.9405323157291292e-26  -1.3113310538084516e-25  2.0243391964596955e-26  -5.4377243196516283e-26  -1.9685905042352429e-27  4.0123771865472912e-26  1.8863877162171007e-27  -9.9495547634930444e-28  6.1559821245083899e-28  1.9424020448642788e-26  2.6669210813406946e-27  5.3368142484673525e-27  -9.0039152763365192e-28  1.9624689434698493e-26  8.7884579613132263e-27  -1.7405563822433547e-26  -2.1360285128862140e-27  4.1470007202133440e-26  8.3551431746335120e-28  4.9911483145297192e-27  5.5216462216855621e-27  2.8609529442754859e-27  4.8953728049339242e-27  6.4307369269558138e-27  6.3029908417752790e-27  8.3825526222428453e-27  4.2324098628424681e-27  4.5418806003814003e-27  -2.0887870115093484e-28  8.0916942214405766e-27  6.7879848555398063e-27  6.0606449418738482e-27  4.8973508440148179e-27  5.0856199198424951e-27  6.3999999999999997e-22  -2.6655288558070311e-22  6.3999999999999997e-22  6.3999999999999997e-22  6.3999999999999997e-22  -1.4446517228234484e-22  6.3999999999999997e-22  6.3999999999999997e-22  -2.4969186628520646e-22  4.7503690259236074e-23  -1.8547114739340887e-22  6.3999999999999997e-22  6.3999999999999997e-22  -2.2302426915453392e-22  -1.1230849537156798e-22  5.1826197914919931e-23  6.3800566865308689e-23  6.3999999999999997e-22  -2.4570982754786413e-22  6.3999999999999997e-22  6.3999999999999997e-22  9.2066785034287691e-24  -8.9169618469561625e-24  -1.8056221143264481e-24  -2.4610577640741373e-23  2.9072199731641286e-24  -3.2528854142117144e-24  -7.6903082299354144e-24  -3.2837966120973759e-25  1.7288398393496059e-23  1.5198800536382499e-23  7.1138816155614343e-24  -5.2543248329673544e-24  1.3197261084132816e-23  2.9958094276847190e-23  -2.4639609915961161e-22  -6.4159236323783015e-24  -1.4355337193223196e-22  -5.1682320286317415e-23  1.6225196685577010e-27  -2.3870112864982372e-27  9.3398667083855824e-27  8.2928274319201470e-27  -1.0370262567839083e-27  1.8643695170071753e-26  2.2793590375199906e-26  7.1573742810336042e-27  8.8681699260711053e-27  1.2272987141269446e-26  3.7411184489367766e-27  1.1449714038267985e-26  1.3362697508735403e-26  5.6043515692890252e-27  5.3985950602272033e-27  3.9423751962107542e-27  3.4825279479776994e-27  -8.0285123161902840e-27  -8.9487237749571493e-27  -1.9203377224544652e-27  2.1518016360461943e-26  4.8851599901189797e-27  1.2357858597264007e-26  4.7510368866635703e-27  3.6910216802700895e-27  5.1939641202001556e-27  3.9321353789807467e-27  3.1849496896346027e-27  4.1018681255447341e-27  4.2121404403667460e-27  5.1069355361211106e-27  3.9836458877148800e-27  5.4839854793594220e-27  6.4352958582724076e-27  4.1585190756782725e-27  2.9980124191351088e-27  5.1747069034859342e-27  4.0993769063959707e-27  4.2372699534986009e-27  3.9405527014032688e-27  3.8931102454877182e-27  4.7692432612679928e-27  3.9870547080522783e-27  3.9227465993564237e-27  6.5192469799731083e-27  1.0895603514914843e-26  7.9202029752500735e-27  -4.7287929595458087e-27  1.0488445354806176e-26  9.7695781647693355e-27  1.6771579788391812e-26  6.3840482612230948e-27  -5.1665898290765862e-27  -1.6770512095570286e-27  1.6886750296267043e-26  8.7429639863319547e-27  9.3131686768697625e-27  4.8929345359314280e-27  9.3839517977869196e-27  5.5801346878326262e-27  8.3987822267852660e-27  -5.9443262801416356e-28  1.7064495885079786e-26  2.3411765171185736e-26  6.5562267324599689e-27  5.0143523911251212e-27  4.2816004586315003e-27  -8.8835158815906712e-27  7.7587128374846534e-27  5.9568443555349346e-27  5.4593501456228476e-27  -1.0336421778184657e-26  3.7219416312876192e-27  7.6436222012511676e-27  6.9496767162878133e-27  5.3932332255769887e-27  5.4492925086462352e-27  1.8389064787758636e-27  1.8549368196285735e-27  3.2339450377179746e-27  -6.4622548993909301e-27  5.8777150667271908e-26  3.2240778325473553e-26  4.8796040057597418e-26  6.1156348832177497e-26  -6.4129826068961584e-27  -4.9410067955477610e-26  -5.3091860062526960e-26  -9.5793660054201290e-27  -8.9206105657242024e-27  9.6527356006903117e-24  -1.3935729106334076e-23  -7.6409209271067165e-24  1.6260263835854310e-24  4.9299270882249046e-24  -2.1684271949960187e-23  4.5018734433543269e-24  1.6767616202478980e-23  6.1290154843774219e-24  6.9719366175219277e-23  5.2171735877733278e-25  -4.8743783367300298e-24  2.2376280584959588e-24  3.7346756578931408e-24  -2.3270382442643386e-23  -7.0557487146926609e-24  4.3385414897382748e-23  6.3598246457093353e-24  4.7315961960734532e-24  6.5955418453650378e-26  3.0499654393208573e-24  -1.8993164275632573e-24  7.0450745124743730e-25  -2.6583600660490158e-25  -2.9438774944955280e-24  4.6264229565353631e-25  -1.6165549796716244e-25  -2.8647403111414780e-22  -4.9113263495921674e-23  -4.5272832702112282e-26  1.9445271057114315e-26  -7.7926849257818110e-26  1.4789419745523136e-26  1.3866430087462683e-26  7.8135514340420503e-26  9.4787194212737349e-26  2.5411607391117426e-26  -1.6406648516369518e-26  -5.2901776539272950e-27  -2.7977751446172293e-26  -1.4719229959258379e-25  1.7924149292595953e-25  7.9530294379411220e-27  -2.5437683862214442e-26  -1.1368999984160872e-25  -3.5798740573477564e-27  2.1905379304655705e-26  -1.7347793424951521e-26  -9.0155368165187989e-27  -1.0302795592568830e-26  1.2166906243230505e-26  -9.9231036107201445e-27  -1.0588158030281120e-26  -1.2735121042878420e-26  5.9096919843422630e-27  6.9597985097767818e-27  -2.8593762343262582e-24  1.4133182875114828e-23  4.2903190365466034e-24  2.9384669834553023e-23  -6.1664055630991805e-24  -1.5417891942151123e-23  1.8376144806329658e-24  -8.6962235555034740e-23  6.9619091365734835e-24  -1.1479244633176676e-22  1.0920158401593624e-26  3.0712702025676673e-26  -5.9405100502752865e-26  -5.0588132379311435e-26  1.4198926630198928e-26  -9.6647563802711419e-27  6.3999999999999997e-22  6.3999999999999997e-22  -2.3446265697725245e-22  -1.9818494014196131e-22  9.9744771887203897e-23  -2.9734790380311156e-22  4.2332219715442759e-23  5.7494080299550844e-23  -2.5937068536275761e-22  6.3999999999999997e-22  -2.9374154617423606e-22  2.2786979496273160e-23  6.5910925961180219e-23  2.7569881801284482e-23  3.0439959796385353e-23  -2.3938691262990285e-23  6.2879419331351765e-24  -1.3749863821716764e-23  -4.0906915697068658e-22  5.6427689507154204e-23  4.6971759490447045e-24  9.0822163189347304e-24  -1.8071954464027772e-23  2.4303510621801894e-24  7.3672355915346062e-24  -8.9748917842980246e-24  -2.4384952083791156e-23  4.5590225405647704e-24  6.3999999999999997e-22  -2.5156035641147630e-22  -2.7960664035436858e-22  -7.0856513988788243e-25  8.6321512755541357e-25  -4.3472813632161834e-25  8.6044093656428161e-25  -1.0315993286866421e-25  -7.5301258987577841e-26  2.6050317316001554e-24  -6.1988256009096178e-25  2.3954264499049958e-25  -8.8458342135470841e-25  -1.9246081251732856e-26  2.6925793865269093e-25  6.5133602162831408e-25  -2.9972757244683538e-25  -1.5683251064610718e-25  -5.2472827724004240e-25  1.8363682403996873e-25  9.7808470886048036e-25  -6.6804785107561738e-25  -1.7176968525768497e-25  2.5727735154855409e-27  -5.5486735963549162e-26  -8.5317007243748632e-26  2.4417640985189380e-26  -1.3300307387584978e-25  3.7522407842685380e-26  -5.4895410472682651e-26  -6.7248476591522227e-26  -5.9819893219370053e-26  -1.2881748436405785e-25  -6.0491656484352363e-27  1.7052546692304768e-25  9.4869592268294912e-27  -2.8892235200105809e-26  -1.1061322713033010e-25  -1.4971369292211655e-26  -7.8236602615651241e-27  -1.2974510586446505e-26  4.6555992402396598e-24  -8.1902226913052406e-24  8.7600498962339209e-25  -4.8901703040064632e-24  3.6773949557054458e-24  1.9965332233489786e-24  -7.0895667683889555e-24  6.9109072190520246e-24  6.6700818562076162e-26  -2.1169769848399729e-24  3.1757028674624957e-24  4.7590679315364285e-25  -3.1224983696468091e-24  4.9297318298947389e-25  -1.0995792673433322e-25  2.7646415852809095e-25  -5.9699076909541432e-24  -3.8785685828184357e-24  -4.5283789549269941e-24  2.9979265249066082e-23  -6.2059017083496171e-24  6.1702031222723465e-24  3.9579374167643151e-24  8.2471564113833905e-24  1.7744009947895085e-24  -4.6837647489139898e-24  -2.8826329275142301e-24  -5.9261836058724810e-24  -3.2484070015607562e-24  -5.5492194117834500e-24  -1.5281761503776314e-23  -1.1459809631062165e-22  -5.6334687787004122e-24  -1.2307545011336871e-28  4.7611151206024488e-27  4.8661889344835867e-27  5.1475359653396604e-27  5.7835957270382836e-27  -3.8535869490521799e-26  -2.6993830067733515e-29  -5.7744986123983081e-26  1.1832247277441118e-26  9.9454676206945741e-27  -1.2328264308736262e-27  1.0648165774219195e-26  1.2108305918865472e-26  -1.1874223665740480e-26  9.8402001468332731e-27  1.5835788726126457e-26  4.1551784447674861e-26  -3.5241625786273894e-26  4.6341913250749621e-27  4.9455264177611777e-27  5.1443811520192623e-28  -7.6861022292732936e-24  1.3223140368866732e-23  6.2004235743309821e-24  -3.1346366368733248e-24  -1.8365451254750689e-24  -8.9737425057452022e-25  2.3760811340703708e-24  8.0035586610759107e-24  4.5125139282417339e-25  -7.0493440070598089e-24  -9.3677292252203343e-25  9.9120286679222335e-25  -5.7635997235682170e-24  1.3942070174439702e-24  -5.9665120869892593e-25  1.1324460984354596e-24  2.0066586160988992e-25  -7.5419696249088041e-25  -1.3364845907430305e-24  2.1017287742405159e-26  -1.2902125277745465e-23  -8.7340438530300100e-25  -6.4799948016514241e-25  3.8270351562279996e-26  1.6099607207975477e-25  6.3999999999999997e-22  6.3999999999999997e-22  6.3999999999999997e-22  -2.7459976488451185e-22  6.3999999999999997e-22  6.3999999999999997e-22  -3.2481927319508095e-22  -4.3197377587110093e-23  -1.2301783095426386e-25  -6.1503567241979872e-25  -5.7466342928596272e-26  -3.4992064386155259e-26  6.7843668395951506e-25  -7.9500961802432289e-26  -2.4452431690300332e-25  -8.4183312579890700e-26  -3.8934288344122602e-24  1.5611174449700711e-23  -5.4050077248514150e-24  6.4820946060682946e-24  6.3999999999999997e-22  -3.0123736642222118e-22  -8.7364966728349190e-23  -1.2606844902841188e-22  8.4929002139031090e-24  5.3548842492930378e-23  -7.1243261782320745e-23  6.3999999999999997e-22  -3.0839265460664301e-23  -2.4505705226721735e-22  -5.9201338707935016e-24  2.6360353969787068e-23  -9.0561094013336398e-24  6.3999999999999997e-22  -1.4160906503077917e-22  -1.6112839657740749e-23  -2.0752970832652667e-24  -1.1593367142779441e-24  2.7263206586008955e-25  5.8466747452352395e-25  -1.5282838086469283e-25  -1.2053124588506194e-25  -6.6463640200526782e-26  1.1990603302935945e-26  -4.7494792722176203e-26  2.7571542136902311e-26  -2.9773164444909779e-26  -6.1880221070261504e-25  -5.4830013288854681e-26  -7.2513003927962360e-26  -2.4792817284651225e-25  -2.0540701582148266e-24  2.2414198329691090e-25  -1.3198099871890538e-24  6.0413449651088138e-25  -7.8283155706580404e-26  -5.4334170873522755e-25  1.3351131304843499e-25  -3.8535563026231229e-24  1.6814323081342711e-24  -1.1943939127554736e-24  -4.6901403767287638e-24  -1.3794101987829106e-24  -8.6519212668847156e-26  -5.9746516712566064e-25  -1.3099482747488941e-24  -2.9602473872790622e-27  1.1294865073413092e-26  8.0289065517174492e-27  -1.5296579448400723e-29  4.7941033268369931e-27  5.8445355314913427e-27  5.5294128624586041e-27  1.0702318502177639e-27  7.6155610761037844e-27  4.5427968380410294e-27  3.4350414506326568e-27  7.3778409985396913e-28  -2.6391899150939923e-27  9.1447593748589378e-27  5.3173400013764236e-27  6.3793434128974206e-27  5.3230703649622024e-27  5.2874324981150337e-27  8.2663682590135140e-27  4.3642044774529908e-27  4.8299396210151726e-27  3.1134377722848625e-27  3.7519440306502681e-27  4.2263367278830084e-27  5.9825397354402631e-27  3.3832212642804045e-27  3.8923717036206636e-27  -4.4678235374724948e-24  -6.1404526556527424e-24  6.5542063047710422e-24  -2.7575868797788134e-24  -5.4668693013815497e-24  -6.8493402905887300e-24  -1.1412920548384389e-24  3.8613154085575806e-25  3.2534727725074825e-24  4.4404620637138816e-25  -3.9190558916723955e-24  -4.5459223654942466e-24  1.0692309290802759e-24  -4.2286742561697854e-25  5.1015067653429111e-27  7.1676406506194735e-27  5.4139652587445490e-27  6.9939905183583440e-27  4.9721837519206192e-27  -2.6305584789898863e-23  -2.0907652662763637e-22  -1.1491408895540736e-22  5.1157732804044463e-23  -1.0545453885458153e-23  -1.7376101733693595e-24  6.0171649320244393e-23  5.9445822658958657e-24  -6.2384909537804470e-25  3.9716887353817467e-23  -2.5141823256029764e-22  -2.0445638229093777e-23  -2.5146941429252609e-24  1.4506528689543180e-24  -9.9708322510175736e-28  8.4875097576882031e-27  -5.4326999221967816e-27  4.2545288684148985e-27  5.1970394709079606e-27  -2.1703667893644646e-22  6.3999999999999997e-22  -2.6302526888253305e-22  6.3999999999999997e-22  6.3999999999999997e-22  -2.0837868524028078e-22  -4.0778817854190264e-22  -2.5054812846818449e-22  6.3286368395559305e-24  6.3614132541894676e-23  -4.5019622631072272e-23  3.8353676191350534e-23  -2.4367991330600052e-22  1.2013603490692403e-23  -3.1783418367208157e-22  6.3999999999999997e-22  -2.4014480014175200e-22  6.3999999999999997e-22  6.3999999999999997e-22  2.7924522953285522e-23  3.7022496140371950e-23  -1.6710786014419035e-23  2.6318311046540181e-24  7.1314555807322204e-27  4.0868703784273082e-27  4.4580311254232699e-27  4.2218322843644313e-27  5.5096940513824749e-27  4.2060026924099557e-27  5.5752625145262946e-27  4.2998153422122042e-27  4.4695376566008793e-27  5.6354662139717161e-27  5.9355555299298120e-27  4.0270806875366487e-27  3.8206289147576880e-27  3.2084280917265164e-27  5.2971569996167927e-27  5.5081014864749451e-27  3.8297220849506748e-27  -8.8215837356078620e-25  -1.5751173781808254e-25  -4.9417759010890888e-26  3.1317419723055724e-26  1.8622344087708223e-25  -1.5881328013080292e-25  2.5229480689942281e-26  6.3999999999999997e-22  -2.7675082644607068e-22  -2.1624849923768326e-22  9.4188591668781180e-24  -1.8603415886703669e-22  6.3999999999999997e-22  6.3999999999999997e-22  -2.2351856401384233e-22  6.3999999999999997e-22  6.3999999999999997e-22  6.3999999999999997e-22  6.3999999999999997e-22  6.3999999999999997e-22  -1.1407965580355085e-22  6.3999999999999997e-22  -2.5747477924654063e-23  -5.5575464717867519e-24  1.9301005575316364e-23  -3.6702978224648888e-24  -6.9374156453220870e-24  6.3999999999999997e-22  6.3999999999999997e-22  -2.4164368307378908e-22  6.3999999999999997e-22  6.3999999999999997e-22  6.3999999999999997e-22  -3.3746722829879459e-22  6.3999999999999997e-22  -3.2993010209689436e-22  1.8084843679473619e-23  -6.8475164379844201e-23  6.3999999999999997e-22  6.3999999999999997e-22  -2.3223192467636039e-22  6.3999999999999997e-22  6.3999999999999997e-22  6.3999999999999997e-22  5.6985244268463854e-27  -1.0269244638045265e-26  4.2487502978813106e-27  7.3668016863675045e-27  6.6693302839086177e-27  4.9032972915497001e-27  4.8870506063003910e-27  1.7577810479037970e-27  1.9122537922596953e-27  3.6873114775135720e-27  -1.2175927241836302e-24  5.1045028445015631e-25  -4.6118452280984716e-24  1.0958672807951790e-24  -2.3759172072807898e-25  -1.6010385128840995e-24  1.8460827726690554e-25  3.3994757976142335e-25  -2.3417832761980269e-25  -3.1892023093231692e-26  1.2717232743123598e-25  -7.2641469420287707e-26  7.9154364272376623e-26  4.7563404484969502e-26  -5.9151202764658724e-26  1.0564989788732394e-26  -4.9252711440586990e-26  4.8238600685476833e-27  -3.0371264492356940e-26  5.9175031900058071e-27  2.2789346290768174e-26  1.6179724072248206e-26  -1.9323029632484455e-26  -9.5416861292898651e-26  1.2460540645440813e-26  -3.2165647271372712e-26  -4.4841576362478246e-26  2.7914532291964159e-26  -4.6885459620256222e-25  -9.210