<?xml version="1.0"?>
<VTKFile type="UnstructuredGrid"  version="0.1"  >
<UnstructuredGrid>
<Piece  NumberOfPoints="4897" NumberOfCells="22180">
<Points>
<DataArray  type="Float64"  NumberOfComponents="3"  format="ascii">52.226008 -18.208582 -8.768789999999999  51.20875775 -18.59738025 -9.03449775  51.442786 -17.95147675 -9.094369499999999  51.44276600000001 -18.28245025 -8.41685  50.659524 -18.3563185 -8.064909999999999  45.989047 -18.707171 -5.920243  46.76504525 -18.656392 -6.28043975  46.50999625 -19.0479295 -6.843582749999999  46.76504525 -18.37565175 -6.977003  47.5410435 -18.0441325 -8.033763  47.5410435 -18.32487275 -7.33719975  47.2859945 -18.71641025 -7.90034275  47.0309455 -19.388688 -7.7669225  47.2859945 -18.9971505 -7.2037795  47.5410435 -18.605613 -6.6406365  45.989047 -18.42643075 -6.61680625  46.76504525 -18.0949115 -7.67356625  46.50999625 -18.76718925 -7.540146  45.989047 -18.1456905 -7.3133695  49.09304 -18.504055 -7.36103  48.31704175 -18.554834 -7.00083325  48.06199275 -18.9463715 -7.56397625  48.31704175 -18.27409375 -7.6973965  48.06201275 -18.615398 -8.24149575  48.33602425 -19.916035 -8.4170205  48.907034 -24.510716 -11.7971665  47.6229965 -24.01841075 -11.070328  47.9455315 -23.2622015 -11.27186925  47.6270005 -23.56999575 -11.98539025  46.984029 -22.013687 -10.746572  46.661494 -22.76989625 -10.54503075  46.338959 -23.5261055 -10.3434895  47.24339725 -24.39134575 -11.81415475  37.452681 -39.907084 -11.862602  34.988803 -38.09079699999999 -11.5502235  35.6204435 -37.9153465 -10.0499015  36.2211685 -36.993333 -11.2770025  34.989656 -34.079582 -10.691403  33.7572905 -35.177046 -10.964624  34.388931 -35.0015955 -9.464302  33.788206 -35.923609 -8.237201000000001  32.524925 -36.27451 -11.237845  35.62526099999999 -37.071378 -12.743508  50.201313 -24.815885 0.002145  48.89221125 -24.062544 -0.41726775  48.892116 -24.062781 0.4199595  49.9242415 -23.57624025 -0.3752365  49.64717 -22.3365955 -0.752618  48.61513975 -22.82289925 -0.79464925  48.6150445 -22.82313625 0.042578  47.582919 -23.309677 0.837774  47.58301425000001 -23.30944 0.0005467500000000403  47.5831095 -23.309203 -0.8366804999999999  49.093027 -19.857306 -1.507381  48.06099675 -20.34360975 -1.54941225  48.0609015 -20.34384675 -0.7121850000000001  48.33806825 -21.5832545 -1.17203075  47.306038 -22.06955825 -1.214062  47.30594275 -22.06979525 -0.37683475  47.028776 -20.8303875 0.08301099999999995  47.02887124999999 -20.8301505 -0.75421625  47.0289665 -20.8299135 -1.5914435  48.33797300000001 -21.5834915 -0.3348035  47.3058475 -22.07003225 0.4603925  49.3700985 -21.09695075 -1.1299995  44.964525 -21.803469 1.673403  44.96462025 -21.803232 0.83617575  45.9966505 -21.31692825 0.878207  46.27381725 -22.556336 0.41836125  46.27391249999999 -22.556099 -0.418866  45.99674575 -21.31669125 0.04097974999999998  44.9647155 -21.802995 -0.001051499999999983  46.27372200000001 -22.556573 1.2555885  44.964906 -21.802521 -1.675506  44.96481075 -21.802758 -0.83827875  45.996841 -21.31645425 -0.7962475  46.27400775 -22.555862 -1.25609325  45.99693625 -21.31621725 -1.63347475  45.989047 -19.621608 0  46.765042 -19.62304325 -1.12565125  46.765042 -19.6805325 -0.37684525  46.50900675 -20.22576075 -0.79572175  47.541037 -19.68196775 -1.5024965  47.28500175 -20.227196 -1.921373  47.28500175 -20.28468525 -1.172567  47.541037 -19.739457 -0.7536905  47.541037 -19.6244785 -2.2513025  45.989047 -19.56411875 -0.748806  46.765042 -19.565554 -1.87445725  46.50900675 -20.1682715 -1.54452775  45.989047 -19.5066295 -1.497612  45.73301175 -20.16683625 -0.4188765  46.2529715 -20.770989 -1.21459825  45.4769765 -20.7120645 -0.837753  45.73301175 -20.109347 -1.1676825  45.989047 -19.391651 -2.995224  45.989047 -19.44914025 -2.246418  45.73301175 -19.9943685 -2.6652945  46.50900675 -20.11078225 -2.29333375  46.2529715 -20.71349975 -1.96340425  45.4769765 -20.597086 -2.335365  45.73301175 -20.05185775 -1.9164885  46.765042 -19.50806475 -2.62326325  48.317032 -19.74089225 -1.87934175  48.317032 -19.7983815 -1.13053575  45.4769765 -20.65457525 -1.586559  45.22094125 -21.1998035 -2.0054355  45.22094125 -21.25729275 -1.2566295  49.9242405 -23.5762785 0.37794725  49.64716900000001 -22.33663375 0.0005657500000000315  48.6150435 -22.8231745 0.79576175  49.647168 -22.336672 0.7537495000000001  49.093023 -19.857459 1.505354  48.0608985 -20.3439615 1.54736625  48.0608995 -20.34392325 0.7941825  48.337971 -21.583568 1.171564  47.3058465 -22.0700705 1.21357625  47.028775 -20.83042575 0.83619475  47.028774 -20.830464 1.5893785  48.337972 -21.58352975 0.41838025  49.093024 -19.85742075 0.75217025  48.0609005 -20.343885 0.04099874999999997  49.093025 -19.8573825 -0.001013500000000001  49.3700965 -21.09702725 0.376368  49.3700975 -21.096989 -0.37681575  49.37009550000001 -21.0970655 1.12955175  49.09302599999999 -19.85734425 -0.75419725  45.9966495 -21.3169665 1.63139075  46.252781 -20.771463 0.45985625  46.5089105 -20.226036 0.79468925  45.7329165 -20.16707325 0.41835075  46.5089115 -20.22599775 0.04150549999999997  45.476786 -20.7125385 0.8367015  46.25278 -20.77150125 1.21304  46.765041 -19.68057075 0.3763385  47.2849055 -20.2849605 0.417844  47.2849045 -20.28499875 1.17102775  47.541035 -19.7395335 0.752677  47.54103600000001 -19.73949525 -0.0005067500000000003  47.28490650000001 -20.28492225 -0.33533975  48.31703 -19.798458 0.37583175  48.317031 -19.79841975 -0.377352  48.31702900000001 -19.79849625 1.1290155  45.22065550000001 -21.25800375 1.25505225  46.25287625 -20.771226 -0.377371  45.47688125 -20.7123015 -0.0005257499999999915  45.22084599999999 -21.25752975 -0.41940225  45.22075075 -21.25776675 0.417825  48.59434025 -24.652855 0.00102975  47.28514325 -23.899751 0.41884425  47.2852385 -23.899514 -0.4183829999999999  46.9873675 -24.489825 -8.549999999999986e-05  44.66674925 -22.393543 1.25447325  45.97594625 -23.146647 0.83665875  45.67817049999999 -23.736721 0.417729  45.97604149999999 -23.14641 -0.0005684999999999914  44.6668445 -22.393306 0.417246  44.3689735 -22.983617 0.8355435  44.667035 -22.392832 -1.2572085  45.97613674999999 -23.146173 -0.83779575  45.67826574999999 -23.736484 -0.41949825  44.66693975 -22.393069 -0.41998125  44.369164 -22.983143 -0.838911  43.773422 -24.163765 -0.002316  44.071293 -23.573454 -0.4206135  44.36906875 -22.98338 -0.001683749999999991  45.38039474999999 -24.326795 -0.00120075  44.07119775 -23.573691 0.41661375  50.193853 -23.725203 7.327472  48.56896275 -23.825948 6.42818525  48.89126974999999 -23.314483 5.833737  48.8879925 -23.11406325 6.740501  47.582132 -22.5029235 6.15353  47.26310225 -23.21480825 5.84121425  47.58540925 -22.70334325 5.246766  47.58868649999999 -22.903763 4.340002  47.2663795 -23.415228 4.93445025  46.9440725 -23.926693 5.5288985  50.19713025 -23.92562275 6.420708  50.2004075 -24.1260425 5.513944  48.57224 -24.02636775 5.52142125  48.894547 -23.51490275 4.926973  49.87482325 -24.43708775 7.01515625  49.8781005 -24.6375075 6.108392250000001  49.5557935 -25.1489725 6.702840500000001  48.249933 -24.53783275 6.115869500000001  50.206962 -24.526882 3.700416  48.57551725 -24.2267875 4.61465725  48.89782425 -23.7153225 4.020209  50.20368474999999 -24.32646225 4.60718  49.884655 -25.038347 4.29486425  49.88137775 -24.83792725 5.201628250000001  49.562348 -25.549812 4.8893125  48.25321025 -24.7382525 5.2091055  48.917734 -26.572742 6.078209  47.93090325 -25.2497175 5.803553750000001  49.24004100000001 -26.061277 5.48376075  49.55907075 -25.34939225 5.7960765  49.23676375 -25.86085725 6.390524750000001  44.970411 -21.280644 4.979588  45.95724175 -22.6036685 5.25424325  46.27954875 -22.0922035 4.659795  46.2762715 -21.89178375 5.566559  48.59047149999999 -23.5504785 7.316872  48.887585 -22.86246525 7.538326250000001  47.284611 -22.93933875 6.729901  47.5817245 -22.2513255 6.951355250000001  47.581317 -21.9997275 7.7491805  47.2842035 -22.68774075 7.527726250000001  46.98708999999999 -23.375754 7.306272  44.67289 -21.71705925 5.555959  44.9700035 -21.029046 5.77741325  45.9787505 -22.328199 6.14293  45.6812295 -22.76461425 6.719301  45.978343 -22.076601 6.94075525  44.969596 -20.777448 6.5752385  44.6724825 -21.46546125 6.35378425  44.375369 -22.1534745 6.13233  46.275864 -21.64018575 6.364384250000001  46.2754565 -21.38858775 7.1622095  44.968781 -20.274252 8.170889000000001  44.6716675 -20.96226525 7.949434750000001  44.9691885 -20.52585 7.37306375  45.9779355 -21.825003 7.7385805  45.680822 -22.51301625 7.51712625  44.672075 -21.21386325 7.151609500000001  44.374554 -21.6502785 7.727980500000001  46.275049 -21.13698975 7.96003475  43.780327 -23.026305 7.285072  44.0774405 -22.33829175 7.50652625  44.3749615 -21.9018765 6.93015525  45.3837085 -23.2010295 7.295672  44.077848 -22.58988975 6.708701  45.989047 -18.707171 5.920243  46.25572325 -19.94341075 5.809401749999999  46.51038175 -19.52454725 5.3258575  46.51038225 -19.3000425 6.0445655  45.734388 -19.35053925 5.685079249999999  45.479729 -19.9939075 5.449915499999999  46.25572275 -20.1679155 5.09069375  47.0317175 -19.892914 6.168888  47.031717 -20.11741875 5.45018  47.0317165 -20.3419235 4.731472  46.76504075 -18.881179 5.56102125  47.286376 -19.4740505 5.685343749999999  47.2863755 -19.69855525 4.96663575  47.54103449999999 -19.055187 5.2017995  46.76504125 -18.65667425 6.279729250000001  47.54103499999999 -18.83068225 5.9205075  47.2863765 -19.24954575 6.404051750000001  47.5410355 -18.6061775 6.639215500000001  49.093024 -18.505184 7.358188  49.0930235 -18.72968875 6.63948  48.31702925 -18.7801855 6.27999375  48.06237075 -19.199049 6.763538  48.06237025 -19.42355375 6.044829999999999  48.31702875 -19.00469025 5.56128575  49.093023 -18.9541935 5.920771999999999  48.31702975 -18.55568075 6.99870175  49.093022 -19.403203 4.483356  48.31702824999999 -19.229195 4.84257775  48.06236925 -19.87256325 4.607414  48.06236975 -19.6480585 5.326122  49.0930225 -19.17869825 5.202064  46.00106375 -20.81128375 4.85553  46.00106425 -20.586779 5.574237999999999  45.22507 -20.63727575 5.2147
[...]
<PointData  Scalars="c_HbCO2"> 
<DataArray  type="Float64"  Name="c_HbCO2"  format="ascii">5.7941736138432468e-27  4.0203387506176962e-27  -2.9344580235172601e-28  3.7098614960544870e-27  3.4016726543543344e-27  -3.5857869728788403e-27  5.3994879196281227e-27  8.9115947381531854e-27  6.7659507878164963e-27  2.7765236523382151e-27  3.9629680202943642e-27  3.4758286973537572e-27  2.9858305692200455e-27  2.6017471412113864e-27  2.7223647764616004e-27  -8.6701895148168376e-27  5.1192508553169065e-27  5.3712415122266430e-27  -1.5068884352136049e-27  3.2561516822888025e-27  3.9085761988417415e-27  3.2817543595463867e-27  3.6025467213680875e-27  3.4034332749521794e-27  3.9890774736185380e-27  3.6066600520269283e-27  3.6220096996719253e-27  3.4688727185234887e-27  3.6740630475840977e-27  3.4829016195824939e-27  3.6828449321300800e-27  3.5996498982950239e-27  3.6934448914112444e-27  3.6240105673969853e-27  3.6212558506200174e-27  3.6004744046247268e-27  3.6220405607063713e-27  3.5794760073851831e-27  3.7153323890576073e-27  3.5729200462614667e-27  3.5891945494974419e-27  3.5750651304237793e-27  3.6398561664186139e-27  3.6019117835591663e-27  3.5226862965471827e-27  3.5509624532620805e-27  3.6798174937899693e-27  3.7620517040128535e-27  3.4784552343283220e-27  3.7746431343332325e-27  3.0556105703576013e-27  3.5192771181856854e-27  3.1784704617862117e-27  3.2643630237198238e-27  3.2429948169707311e-27  3.6578259922107287e-27  3.9462630297248795e-27  3.3261112027920078e-27  4.6840411861161596e-27  2.4680467766246292e-27  2.5943666315813485e-27  2.9718862632211693e-27  3.6178607770682935e-27  5.2525767315668572e-27  3.5512989853538600e-27  3.9734132154683158e-27  3.1872292493707825e-27  4.6982822678878808e-27  3.2854354388199049e-27  4.2473087178058692e-27  2.1359740618614255e-27  4.3064116081031630e-27  4.0076999481599726e-27  4.0757953333578044e-27  2.8701417735818507e-27  4.8098439620745804e-27  3.9268275838420663e-27  2.4142163930882863e-27  -4.0533005629593251e-27  6.6115989122364052e-27  5.8134838116219674e-27  8.6071477251122665e-27  4.0226728652671968e-27  3.5033879118788625e-27  2.6989607068054252e-27  2.5365072880361256e-27  2.7894315057341380e-27  -8.7330022123005378e-27  5.1640437762019550e-27  5.5075822307639389e-27  -1.4363658903437865e-27  5.0985842344782257e-27  1.2629170143682984e-27  4.2590379635797629e-27  5.9978806393630481e-27  -3.5749115715525286e-27  -9.5998567030174134e-27  4.2566010017310291e-27  8.9887510193006289e-27  4.8635457710627204e-28  4.7327498521445614e-27  6.1874402811897045e-27  6.6994799188128740e-27  3.5606058870428455e-27  3.8609498094552761e-27  6.4516722474679995e-27  1.8955939444140694e-27  2.3410227872200581e-27  3.6645089849507508e-27  3.4673942581450968e-27  3.3344688678571423e-27  3.6346884763571696e-27  3.3497106164158756e-27  3.1862416974322529e-27  3.5052309453358239e-27  3.9431195845314956e-27  3.3430992188369741e-27  2.7670719343047406e-27  2.9037103999313428e-27  3.5820783214890243e-27  3.1770245357215739e-27  2.7509885914253903e-27  5.0874338778251919e-27  3.6540821806651831e-27  2.2680426890994833e-27  3.5779367486120753e-27  3.2180019330401813e-27  2.3679830588214731e-27  1.4865994986548505e-27  9.0139165257118074e-27  3.7302845690409496e-27  9.1010257177125853e-27  4.7051963549079324e-27  1.0254721207724847e-27  6.1821375800308184e-27  3.1144047731563013e-27  2.5918433873980959e-27  2.6356946137076275e-27  4.8440881551039046e-27  3.5182801064431307e-27  3.9872467310454684e-27  4.2073035144259944e-27  3.9510574799393933e-27  1.8854448413670430e-27  1.4680072593709355e-27  6.9118170984918269e-27  1.9760595102527117e-27  1.6045712535391454e-27  3.8980528412793788e-27  4.1846557548701964e-27  3.9936934651550238e-27  3.4936705440710069e-27  3.5638147257535072e-27  3.7337386689108824e-27  3.7346768114170936e-27  3.2653397643554885e-27  3.5686168358545562e-27  3.6575501301128100e-27  3.7579520585062325e-27  3.4961664276618366e-27  3.8668342397434423e-27  3.8695478449651550e-27  3.6420177318786241e-27  3.4722412602997420e-27  3.7999766659394466e-27  3.7751896113335079e-27  3.7495115254396563e-27  3.7787331052548884e-27  3.5171480962346977e-27  3.6856670856486321e-27  3.5537301639291182e-27  3.4702819238372415e-27  2.9715837754474304e-27  3.9284922669162781e-27  3.7505485254917258e-27  3.1618917675965721e-27  3.8613446115352304e-27  3.4970099224387100e-27  3.7009222946841608e-27  3.5609079757532025e-27  3.8266608324850335e-27  3.6743708405981825e-27  3.6440445436078006e-27  3.5499699566483446e-27  3.6088492544604082e-27  3.5194024314837228e-27  3.5659300818536729e-27  3.6540779053417685e-27  3.5349990238199870e-27  3.6819268199451026e-27  3.6768514609467558e-27  3.5503080743486310e-27  3.6110509873987455e-27  3.5105628382385028e-27  3.6266028003881950e-27  3.7200854458033619e-27  3.4749556322930290e-27  3.2768182919194575e-27  3.4946966334946483e-27  4.0747786537961213e-27  3.6257491978080492e-27  3.9163993758705295e-27  3.7449779089130722e-27  3.9200880812506749e-27  3.5469499821116901e-27  4.2277525798034639e-27  3.5462909395028040e-27  3.1797193667020662e-27  3.9475661462431682e-27  3.4783325864825183e-27  3.5169922294339844e-27  3.0474034644659788e-27  3.8000582512025353e-27  3.7302404637326115e-27  3.2235403152627099e-27  4.3101889110335220e-27  3.5917108063109931e-27  3.6758857630178879e-27  3.3061067716923855e-27  4.3037167474737441e-27  4.0595308440687109e-27  3.7796693094766996e-27  2.8413016623694566e-27  3.5085716522933172e-27  3.9892959773386975e-27  3.8803385807493127e-27  3.6562434034227520e-27  3.8993120402172616e-27  3.4697723837281615e-27  3.8151255696180937e-27  3.7796099302159208e-27  3.7164819222961622e-27  3.7805750459876393e-27  -3.5855566338572402e-27  2.2977826701589662e-27  9.0365645351368254e-27  8.1200092890621471e-27  4.1640632093196686e-27  4.6582139995272997e-27  4.9681490325896725e-28  2.5068344605332233e-27  2.5015249936647456e-27  2.9507371048430690e-27  6.7181152694981269e-27  3.6109122075079729e-27  3.4682660662665116e-27  2.7815386471039639e-27  5.4055007459739158e-27  3.9264672529151517e-27  3.2569921543823397e-27  2.7226995185805995e-27  3.2562360560155293e-27  3.2734147541368140e-27  3.6993178149784216e-27  3.5288657976133197e-27  2.7856549936908695e-27  3.9533754650958662e-27  5.1029151326887890e-27  3.9024317703474935e-27  3.2596072823548124e-27  3.6128193445659996e-27  3.2795185684494038e-27  3.4095246747903734e-27  3.1074966714209046e-27  2.3940207966454989e-27  4.8623218696256866e-27  1.8568874857551295e-27  5.8089119986211335e-27  -3.0136305839012958e-28  1.7083413628702631e-27  1.2385859945871662e-26  7.6058336846655903e-27  4.4917854863901885e-27  3.2012108484741832e-27  3.8522476834951472e-27  4.2788979257298757e-27  3.1906991795837999e-27  5.7977680627996787e-27  3.6981223664931161e-27  9.5736206143192747e-28  2.4206733275898579e-28  3.7618010954529896e-27  4.8523404057599286e-27  4.4398653267692308e-27  4.0219621947618899e-27  3.4152735871182674e-27  1.2469184710452530e-26  1.1236574251824652e-27  3.7857597452612913e-27  3.8396916164372000e-27  3.6692501612531416e-27  2.9792709187315706e-27  3.9950362792310086e-27  3.4207902515878710e-27  3.7478488166884379e-27  3.8718877418292866e-27  2.3614805305478969e-27  4.2334663415829056e-27  3.2571169497260608e-27  3.6670886744322305e-27  3.3217954214584927e-27  3.1104331517069242e-27  -2.9260826115691025e-28  1.7225215852360224e-27  1.2340523591951676e-26  7.5816751684375771e-27  4.5002761318169666e-27  3.1932273779152097e-27  3.8571118862849250e-27  4.2847110011659936e-27  3.2031652256350763e-27  9.5788100351386303e-28  2.3140546998660968e-28  3.7626486594865695e-27  4.8542287532418389e-27  4.4399513707350218e-27  4.0335595149576768e-27  1.2428457744021267e-26  1.1454538581435786e-27  3.7923572987784764e-27  3.8473932045778714e-27  3.6696134714260815e-27  2.9649217605848811e-27  4.0023728257199607e-27  3.4108923760134400e-27  3.7458810723367942e-27  3.8705227944649983e-27  2.3714488952137495e-27  4.2224125029783917e-27  3.6725782292467099e-27  3.3222058654811950e-27  3.1089651016663605e-27  3.6324949793199097e-27  3.5975101765160652e-27  3.6042087429259649e-27  3.6284161742443709e-27  3.6020918026046799e-27  3.6006191229869988e-27  3.6332680048246424e-27  3.6545819805935507e-27  3.6222695219030158e-27  3.6192374367136693e-27  3.5009510457226848e-27  3.4506252557255192e-27  3.5435592618901768e-27  3.7141855271088058e-27  3.6664094253814783e-27  3.5925223129189796e-27  3.6101232574129101e-27  3.6551484462394567e-27  3.6121552573324655e-27  3.5416518789681502e-27  3.5841850951828881e-27  3.6087694564534930e-27  3.6585030197899406e-27  3.5308080608639819e-27  3.5814568761276550e-27  3.7308046990955882e-27  3.5608822536962701e-27  3.5991857522259574e-27  3.5819796978824517e-27  3.6631186541312783e-27  3.5213952186975772e-27  3.5974897151941296e-27  3.7218068007747688e-27  3.5779689300615519e-27  3.6378568612814868e-27  3.6347511055105758e-27  3.5945426356177318e-27  3.6783093090171006e-27  3.6232883787301440e-27  3.6169982475520761e-27  3.6447816847475345e-27  3.6200875456954574e-27  3.5932065227122716e-27  3.6648101149495842e-27  3.6644198686068352e-27  3.6233355904303559e-27  3.6027667356369080e-27  3.6309775434726274e-27  3.5495660892715303e-27  3.6451550515003989e-27  3.5731010794607868e-27  3.6489540240239725e-27  3.6546341394292816e-27  3.6185713941190839e-27  3.5191321556587411e-27  3.5046156931413998e-27  3.6160915500317466e-27  3.5897534471445051e-27  3.6589360042027448e-27  3.6274502806121458e-27  3.5614701677837136e-27  3.6098334340560385e-27  3.6700373151975286e-27  3.6350007603260197e-27  3.5876597119875391e-27  3.6037337107947942e-27  3.6401708245564780e-27  3.6250025551890396e-27  3.6054851689931621e-27  3.6237104889512986e-27  3.5748904120366767e-27  3.6149180231213639e-27  3.5913025064047665e-27  3.6707345760044021e-27  3.5325002230393663e-27  3.4628502638741801e-27  3.7488395432409250e-27  3.6606667285933862e-27  3.5820568266380587e-27  3.5796299495596006e-27  3.6726906813672823e-27  3.6859611487338740e-27  3.6800344766506661e-27  3.5042427418777312e-27  3.6526718660594642e-27  3.6210484591839156e-27  3.6540377462516439e-27  3.6227807280833488e-27  3.6356239323418565e-27  3.5306322656110863e-27  3.6315955696212027e-27  3.5651305858908597e-27  3.6375242942955832e-27  3.6191986854409726e-27  3.5769206547124858e-27  3.6109939042302593e-27  3.6707544015351341e-27  3.5837502923256778e-27  3.6012893626169832e-27  3.6820502934720542e-27  3.6261934715582970e-27  3.6093826514900278e-27  3.6543899929416664e-27  3.5691884875464256e-27  3.6522133703110225e-27  3.6004095557138978e-27  3.7441338304344445e-27  3.5952370943287885e-27  3.6795443023506510e-27  3.6417006989551954e-27  3.5678873530514406e-27  3.6133729669114210e-27  3.6294262242757564e-27  3.7161404789165963e-27  3.6631229028781139e-27  3.6621356938422934e-27  3.3583575409717148e-27  3.5206277491580632e-27  3.6644691413330287e-27  3.6377671881353763e-27  3.6842679712829561e-27  3.6462828641920879e-27  3.5936519435421563e-27  3.6037056913437444e-27  3.6319852434226402e-27  3.6195990161375240e-27  3.6253313383134229e-27  3.5969765152450236e-27  3.6276214092854421e-27  3.6006245959676742e-27  3.5181002996425863e-27  3.9199385092924867e-27  3.4742482943340539e-27  3.5456251999320692e-27  3.1857939832837229e-27  3.9624953964171780e-27  3.5526126459080881e-27  2.9717778024978547e-27  4.2146342219504854e-27  3.4759331412414634e-27  4.0627731786713998e-27  3.7688335401131824e-27  2.8481489635771402e-27  3.5132365506994367e-27  3.9788429048635417e-27  3.2213837230489989e-27  4.3031051547101170e-27  3.8816449212298229e-27  3.6607128749659587e-27  3.8734637361571107e-27  4.3236495698005923e-27  4.0727624900839008e-27  3.5234867877156716e-27  3.0419779341805688e-27  3.8019931523684674e-27  3.7295240022411533e-27  3.6012791171672748e-27  3.6716456348559067e-27  3.3077473114791837e-27  3.7459407616254742e-27  3.4688233867811901e-27  3.7817219027808684e-27  3.7718161209923526e-27  3.7200818135695574e-27  3.8119690185062352e-27  3.4667727308543219e-27  3.8345834529101515e-27  3.6085906361729937e-27  3.3869370520056802e-27  3.6059950714932165e-27  3.6998148423497571e-27  3.4398470376282400e-27  3.6002427678708976e-27  3.6163594763583209e-27  3.6248627035924336e-27  3.4729139770438012e-27  3.6769532067812664e-27  3.8262844937590565e-27  3.5997746115978260e-27  3.5484530673787414e-27  3.6855583660552417e-27  3.5945382677266704e-27  3.6071466579340419e-27  3.5316875613414614e-27  3.6177354959969395e-27  3.4854950449954529e-27  3.5718702469509846e-27  3.4906527374483165e-27  3.8218552388165462e-27  3.7655960058488388e-27  3.6920483752003180e-27  3.9023859684897373e-27  3.5274423572149640e-27  2.9556277769834089e-27  4.2424917831348500e-27  3.5769755781796761e-27  3.9630081255540092e-27  3.4633343005097297e-27  3.8049383049560956e-27  3.5879434291886566e-27  3.0528177055347863e-27  4.3015336915303066e-27  3.2258965775520119e-27  3.5924660073475958e-27  3.6556076343803095e-27  3.7377383443620667e-27  3.3165818379557431e-27  4.3062372936964921e-27  3.8197643019407635e-27  3.7755844227622383e-27  3.5112337426854983e-27  2.8197253073594394e-27  3.8893138878049806e-27  3.9899172913039833e-27  3.6535677801932820e-27  3.4654488106095505e-27  3.8179606334691642e-27  3.7191369857257949e-27  3.7769060607833716e-27  3.7893516433332605e-27  6.7996370029413308e-27  3.9811883122243521e-27  3.4527878465487594e-27  2.7638271821344711e-27  -8.8318221778748880e-27  5.0793843398249301e-27  5.3608803007294211e-27  -1.4684337051388277e-27  6.0317913678456283e-27  -3.5843841659837474e-27  -9.6012170884545400e-27  4.2063749626041647e-27  9.0439480048957133e-27  5.0094565825001319e-28  4.7013673073975246e-27  6.1924766094435112e-27  6.7274666125382422e-27  3.6137243414718487e-27  6.5281739044438660e-27  1.8300742214783673e-27  3.6341477876380610e-27  3.6003616342738825e-27  3.5443899530609937e-27  3.5391324204885781e-27  3.6043645887640817e-27  3.6729664795797914e-27  3.5823795775219555e-27  3.6082261775816010e-27  3.6623632708847200e-27  3.6272225481779483e-27  3.4940090866179887e-27  3.5551189815175734e-27  3.6075857879779813e-27  3.6465452534114287e-27  3.6688391966073921e-27  3.4010345643125336e-27  3.6162099181513948e-27  3.7430719881606611e-27  3.6044637544022231e-27  3.6016480150116958e-27  3.5801115453887109e-27  3.7154607619696571e-27  3.4933388722270834e-27  3.5560106159671148e-27  3.5993721764458089e-27  3.6347401187836318e-27  3.6582488365186169e-27  3.7766635997028941e-27  3.6177097343343078e-27  3.6956126600163510e-27  3.5203206633806668e-27  3.7152755530572654e-27  4.0156649404424106e-27  3.6137192959046744e-27  3.7289805665753418e-27  3.4726718052870502e-27  3.5603255036511201e-27  3.7284095874153554e-27  3.6533298081953461e-27  3.6038418297441093e-27  3.1454841397877300e-27  3.7282264977389205e-27  3.6585253657654500e-27  3.7597708137816464e-27  3.6084244127961898e-27  3.6192960003256213e-27  3.7643054002047178e-27  3.6870157759262602e-27  3.3779818583999588e-27  3.6046862099996329e-27  3.5792288319950264e-27  3.7698986046119489e-27  3.6181683694426608e-27  3.5077433819307257e-27  3.6118633084419606e-27  3.6134100572382145e-27  3.4072652909914460e-27  3.6268534958048113e-27  3.6263424237211452e-27  3.6282700049743794e-27  3.6299009221546191e-27  3.6638923304536198e-27  3.6255809002307077e-27  3.6114722831173390e-27  3.6230320444963347e-27  3.6626024923978945e-27  3.6348860503906136e-27  3.6308639571519181e-27  3.5965434970960216e-27  3.6197532694306275e-27  3.6411578410563310e-27  3.6067367035815169e-27  3.6268613405349648e-27  3.4756221105003163e-27  3.6138602344388920e-27  3.5881330850211344e-27  3.4997969987039511e-27  3.6353504623524084e-27  3.6376668528043104e-27  3.6144131251483750e-27  3.5882176782113385e-27  3.6336871338113587e-27  3.5628414215470527e-27  3.6598274366949582e-27  3.5489803319237130e-27  3.6356108111932648e-27  3.6598319664597608e-27  3.5715604428327592e-27  3.5808019609776009e-27  3.6282779451413250e-27  3.7051969373872673e-27  3.5252200090361445e-27  3.9948361325448220e-27  3.5311340223480987e-27  3.7048024896677655e-27  3.5952450463425462e-27  3.6579099236986725e-27  3.6794923314238701e-27  3.5774596573752944e-27  3.6249611402313635e-27  3.6472989867002848e-27  3.6082770361174556e-27  3.6442458900039076e-27  3.5960343821552199e-27  3.5801581366958321e-27  3.6643092234339439e-27  3.6635936543689218e-27  3.6050603776719386e-27  3.6408618796819115e-27  3.6575301643829166e-27  3.3733378692309321e-27  3.6486355540706342e-27  3.6105908916004665e-27  3.6163596868204474e-27  3.5653553057609954e-27  3.6124160715790524e-27  3.3540457068480394e-27  3.7611811354647066e-27  3.6060061440594151e-27  3.6329472029046416e-27  3.5464051187743024e-27  3.5884949435090535e-27  3.4460640302913414e-27  3.5376540521412619e-27  3.6603856737571395e-27  3.6399514387018570e-27  3.6162641361130360e-27  3.6536797893820442e-27  3.6426092217451990e-27  3.6407730997972787e-27  3.7251343816157416e-27  3.6097159469645942e-27  3.6293533746969356e-27  3.4934995276676270e-27  3.6428845646284008e-27  3.9600673643793098e-27  3.6206240006148105e-27  3.6260246675308969e-27  3.6597635388311327e-27  3.6644377978711682e-27  3.4908161724227861e-27  3.5940518347122783e-27  3.6064147224017127e-27  3.6458025011304129e-27  3.5560357511596370e-27  3.6098893085171909e-27  3.6210721767355627e-27  3.6974707576297833e-27  3.5665366089595540e-27  3.6211928544907409e-27  3.5335923177169862e-27  3.6588598088912991e-27  3.4950731250732925e-27  3.7106914140295726e-27  3.7244183397246767e-27  3.6312918758000367e-27  3.5441783414986375e-27  3.6140880776527583e-27  3.5164236706251961e-27  3.6430412860183937e-27  3.6164914887940741e-27  3.7077625269380055e-27  3.7006000408833373e-27  3.5491399468873813e-27  3.5735883654872572e-27  3.6923759953523270e-27  3.4959262478242494e-27  3.6476485982410257e-27  3.7196414366552036e-27  3.5472293308832966e-27  3.7117390343381734e-27  5.3761555543552609e-27  6.7715295791592346e-27  8.9174271236657870e-27  3.9465361108819738e-27  2.5877617753013246e-27  2.7362795137017352e-27  -8.6570014071244456e-27  5.1086289677226136e-27  5.3618221665609270e-27  -1.4954599238355525e-27  4.9993794939079322e-27  1.0895655450526621e-27  4.2557737675456208e-27  5.7313432927246022e-27  -9.5316054696343281e-27  6.2556585120639588e-27  3.8982494135639283e-27  6.6576155346916297e-27  2.2721561548597677e-27  3.5999094456996205e-27  3.5259011213237913e-27  3.6483030324075504e-27  3.6269241426559198e-27  3.6301048028765069e-27  3.4889465494482945e-27  3.8405875304313296e-27  3.6975414953325557e-27  3.6610804221353702e-27  3.6270746186902477e-27  3.5993350269260087e-27  3.5093758302878067e-27  3.6214430269329267e-27  3.6126019274919506e-27  3.7316852591639158e-27  3.6297465114473069e-27  3.6011322698315138e-27  3.5297756833254571e-27  3.6608794754437833e-27  3.5152030162506221e-27  3.6374364846574184e-27  3.6632225735238845e-27  3.6343737074166548e-27  3.6876724400919598e-27  3.6146176497777247e-27  3.5405436779394623e-27  3.6594889726560836e-27  3.4952103074173635e-27  3.6625390860380146e-27  3.7142392831610977e-27  3.6034589302040905e-27  3.5383719344354459e-27  3.6137659533547648e-27  3.6014480726285712e-27  3.5172542096016564e-27  3.4947545120193149e-27  3.7122747668323440e-27  3.6903857738953824e-27  3.6589295837434130e-27  3.6486807642263545e-27  3.6296591586040047e-27  3.8510793976557210e-27  3.4987171324047215e-27  3.6321936822535228e-27  3.4176784028921187e-27  3.6330694994405835e-27  3.5516741494140719e-27  3.4759554120701402e-27  3.7062083732507303e-27  3.8280835531001424e-27  3.5267867990813560e-27  3.7264587449505314e-27  3.6055405456324038e-27  3.4757743453301077e-27  3.6218379072784565e-27  3.8225088750978816e-27  3.3817024149798267e-27  3.7342957050261434e-27  3.6246768971342084e-27  3.5976153503162560e-27  3.6092216749220400e-27  3.6186197941361154e-27  3.6296383840619329e-27  3.5347866979689141e-27  3.5823085026666313e-27  3.3903029720804846e-27  3.5010235651012029