<?xml version="1.0"?>
<VTKFile type="UnstructuredGrid"  version="0.1"  >
<UnstructuredGrid>
<Piece  NumberOfPoints="4654" NumberOfCells="21245">
<Points>
<DataArray  type="Float64"  NumberOfComponents="3"  format="ascii">-48.891708 8.046097 26.093318  -47.61208475 8.076234749999999 25.25555975  -47.61322075 7.18453 25.498465  -47.9126225 7.482019999999999 24.83600475  -46.933537 6.917942999999999 23.5786915  -46.3335975 7.214667749999999 24.66070675  -46.63299925 7.512157749999999 23.9982465  -46.63413525 6.620452999999999 24.24115175  -46.3347335 6.322963 24.903612  -46.3324615 8.106372499999999 24.4178015  -44.975366 5.789789 21.064065  -44.3754265 6.08651375 22.14608025  -44.67482825 6.38400375 21.48362  -45.9544515 6.353866 22.32137825  -45.354512 6.650590749999999 23.4033935  -45.65391375 6.94808075 22.74093325  -44.3742905 6.978218500000001 21.903175  -44.07488875 6.680728500000001 22.56563525  -43.775487 6.3832385 23.2280955  -44.67596425000001 5.492298999999999 21.72652525  -45.65504975 6.056375999999999 22.9838385  -44.37656250000001 5.194808999999999 22.3889855  -44.07602475 5.78902375 22.8085405  -43.777759 4.599829 23.713906  -43.776623 5.49153375 23.47100075  -44.07716075 4.897319 23.05144575  -45.355648 5.758886 23.64629875  -45.05624625 5.461396 24.308759  -45.05511025 6.353100749999999 24.06585375  -43.773215 8.166648 22.742285  -43.774351 7.27494325 22.98519025  -44.07375275 7.57243325 22.32273  -45.353376 7.5422955 23.16048825  -45.05397425 7.2448055 23.8229485  -45.05283825 8.136510250000001 23.58004325  -47.23539575 6.83211325 26.25118675  -47.26319375 7.79191875 25.9668745  -45.6068815 6.577935 26.12474325  -45.9569085 5.97054625 25.65633375  -45.9847065 6.93035175 25.3720215  -45.6346795 7.5377405 25.840431  -45.5790835 5.6181295 26.4090555  -48.51388300000001 7.69368025 26.84603975  -48.13605800000001 7.3412635 27.5987615  -46.85757075000001 6.4796965 27.0039085  -46.88536875 7.439502 26.71959625  -47.380408 6.63643 29.104205  -46.12971875 6.7346685 28.22503975  -46.47974575000001 6.12727975 27.75663025  -46.50754375 7.087085249999999 27.472318  -45.2568545 7.18532375 26.59315275  -45.2290565 6.22551825 26.877465  -44.8790295 6.832907000000001 27.3458745  -47.758233 6.98884675 28.35148325  -43.42773200000001 5.20721775 24.1823155  -44.67842125 5.10897925 25.06148075  -44.70621925 6.06878475 24.7771685  -44.35619225000001 6.6761735 25.245578  -44.32839425 5.716368 25.52989025  -43.077705 5.8146065 24.650725  -42.377651 7.029384 25.587544  -42.727678 6.42199525 25.1191345  -43.97836725000001 6.32375675 25.99829975  -44.00616525 7.28356225 25.7139875  -43.62834025 6.9311455 26.46670925  -46.8838935 8.5061135 26.39329025  -48.13458275000001 8.407875000000001 27.2724555  -48.51240775 8.76029175 26.51973375  -48.1331075 9.474486499999999 26.9461495  -46.50459325 9.220308249999999 26.819706  -47.75528250000001 9.12206975 27.69887125  -47.37745750000001 8.769653 28.451593  -46.12676825 8.867891499999999 27.57242775  -44.876079 8.96613 26.6932625  -46.5060685 8.15369675 27.146012  -47.75675775000001 8.055458250000001 28.02517725  -45.25537925 8.251935249999999 26.26684675  -46.1282435 7.80128 27.89873375  -44.87755425 7.8995185 27.0195685  -47.37893275 7.703041499999999 28.777899  -47.374507 10.902876 27.798981  -46.125293 9.934502999999999 27.24612175  -47.37598225000001 9.836264499999999 28.125287  -47.75380725 10.18868125 27.37256525  -43.626865 7.997757 26.14040325  -33.568867 18.219115 40.953572  -30.3161035 18.91314 39.1084825  -31.003247 17.314255 39.331713  -31.684586 18.5605625 38.1873465  -32.8817235 19.818 40.7303415  -28.437627 16.409395 37.709854  -29.118966 17.6557025 36.5654875  -50.196006 9.069295 23.110795  -48.88987874999999 9.037205 22.318225  -48.59030825 8.84363325 23.0186675  -48.890846 8.249418500000001 22.5991125  -47.585686 7.429542 22.08743  -47.58471874999999 8.217328500000001 21.8065425  -47.28514825 8.02375675 22.506985  -46.9846105 8.617971499999999 22.92654  -47.284181 8.81154325 22.2260975  -47.5837515 9.005115 21.525655  -45.97998825000001 7.203880249999999 21.9953025  -44.97439875000001 6.5775755 20.7831775  -45.979021 7.991666749999999 21.714415  -45.6794505 7.798095 22.4148575  -44.673861 7.17179025 21.2027325  -44.9734315 7.365361999999999 20.50229  -46.28052599999999 6.6096655 21.5757475  -46.27955875 7.397451999999999 21.29486  -44.971497 8.940935 19.940515  -44.6719265 8.747363249999999 20.6409575  -45.97805375 8.77945325 21.4335275  -44.97246425 8.1531485 20.2214025  -44.67289375 7.959576749999999 20.921845  -45.67848325 8.585881499999999 22.13397  -44.372356 8.553791499999999 21.3414  -46.2785915 8.185238500000001 21.0139725  -46.27762425 8.973025 20.733085  -44.07278549999999 8.360219749999999 22.0418425  -45.37891275 8.392309749999999 22.8344125  -44.37332325 7.766005 21.6222875  -45.559506 14.101789 29.350825  -44.977475 14.42215175 30.0380935  -43.85321975 13.80425175 29.2282885  -45.195738 13.71900675 30.04733225  -44.83197 13.3362245 30.7438395  -44.613707 14.0393695 30.73460075  -43.48945175 13.4214695 29.92479575  -42.1469335 13.5067145 29.105752  -43.27118875 14.1246145 29.915557  -44.395444 14.7425145 30.725362  -44.104434 12.57066 32.136854  -43.12568375 13.03868725 30.621303  -43.886171 13.273805 32.12761525  -42.76191575 12.655905 31.31781025  -41.4193975 12.74115 30.4987665  -42.90742075 13.74183225 30.61206425  -41.7831655 13.12393225 29.80225925  -42.54365275 13.35905 31.3085715  -43.667908 13.97695 32.1183765  -44.249939 13.65658725 31.431108  -44.031676 14.35973225 31.42186925  -44.468202 12.95344225 31.44034675  -43.231382 15.38324 32.099899  -42.10712675000001 14.76534 31.290094  -42.68915775000001 14.44497725 30.6028255  -42.32538975 14.062195 31.29933275  -41.5649025 13.82707725 29.7930205  -41.2011345 13.444295 30.48952775  -40.9828715 14.14744 30.480289  -43.449645 14.680095 32.10913775  -43.813413 15.06287725 31.4126305  -38.734361 12.91164 28.860679  -39.85861625 13.52954 29.670484  -40.44064725 13.20917725 28.9832155  -40.07687925 12.826395 29.67972275  -39.888716 14.6366695 31.6332545  -40.5784455 14.91175825 30.6278105  -40.43579375 14.39205475 31.05677175  -41.56004900000001 15.00995475 31.86657675  -41.155623 15.774273 32.01409825  -41.01297125 15.2545695 32.4430595  -42.1372265 15.8724695 33.2528645  -40.60854525 16.01888775 32.590581  -40.4658935 15.49918425 33.01954225  -39.45419025 14.29385825 29.8180055  -38.329935 13.67595825 29.0082005  -39.3115385 13.77415475 30.24696675  -38.9071125 14.538473 30.39448825  -37.925509 14.4402765 29.155722  -36.16419 17.873207 38.841986  -33.0424365 18.366281 37.1054195  -34.231598 19.5998485 39.7004755  -34.8665285 18.046161 39.897779  -33.677367 16.8125935 37.302723  -32.3797055 16.9855475 38.358516  -31.190544 15.75198 35.76346  -30.4954245 17.326995 35.5922905  -45.9835705 7.8220565 25.12911625  -44.70508325 6.9604895 24.53426325  -43.426596 6.0989225 23.93941025  -43.424324 7.882332 23.45359975  -44.70394725 7.85219425 24.291358  -44.35505625 7.56787825 25.00267275  -43.42546 6.99062725 23.696505  -43.075433 7.598016 24.1649145  -42.726542 7.313700000000001 24.87622925  -43.076569 6.706311250000001 24.40781975  -36.161274 14.06959 31.53425  -35.56140225 14.296771 32.07606525  -35.8617765 14.80617525 31.50891125  -36.79294375 14.853284 32.8132885  -37.4246135 15.636978 34.092327  -36.193072 15.080465 33.35510375  -36.49344625000001 15.58986925 32.78794975  -35.562279 15.5427605 31.4835725  -35.26190475 15.03335625 32.0507265  -34.96153049999999 14.523952 32.6178805  -42.635804 12.73156075 28.728347  -43.12592775 12.970396 27.89496525  -43.1246745 11.956407 28.350942  -44.34209025 13.029098 28.8508835  -40.689843 9.811025000000001 27.351059  -41.41838825000001 11.65886975 28.2284055  -40.20097250000001 10.58617875 27.728464  -40.69109625 10.825014 26.89508225  -40.69234950000001 11.839003 26.4391055  -41.4196415 12.67285875 27.77242875  -40.20222575 11.60016775 27.27248725  -39.712102 11.3613325 28.105869  -40.92951775 12.4340235 28.6058105  -41.90725875 10.883716 27.8510005  -41.908512 11.897705 27.39502375  -41.90976525 12.911694 26.939047  -39.71335525000001 12.3753215 27.64989225  -39.22448475 13.15047525 28.02729725  -39.7146085 13.3893105 27.1939155  -40.930771 13.4480125 28.14983375  -40.203479 12.61415675 26.8165105  -39.2232315 12.13648625 28.483274  -45.703341 10.62991325 27.6870005  -46.11842475 10.8940155 26.913276  -44.454127 9.66154025 27.13414125  -44.86921075 9.925642499999999 26.36041675  -44.8623425 10.885155 26.027571  -44.44725875 10.62105275 26.8012955  -44.032175 10.3569505 27.57502  -43.204913 8.69316725 26.581282  -41.955699 7.72479425 26.02842275  -42.37078275 7.9888965 25.25469825  -42.3639145 8.948409 24.9218525  -43.19804475 9.652679750000001 26.24843625  -41.94883075 8.684306750000001 25.695577  -41.53374700000001 8.420204500000001 26.4693015  -42.782961 9.3885775 27.02216075  -43.61999675 8.957269499999999 25.8075575  -42.350178 10.867434 24.256161  -41.93509425 10.60333175 25.0298855  -43.1911765 10.61219225 25.9155905  -42.35704625 9.9079215 24.58900675  -41.9419625 9.64381925 25.36273125  -42.77609275 10.34809 26.689315  -41.5200105 10.3392295 25.80361  -43.6131285 9.916782 25.47471175  -43.60626025 10.8762945 25.141866  -41.10492675 10.07512725 26.5773345  -42.361009 10.08398775 27.4630395  -41.52687875 9.379716999999999 26.13645575  -41.111795 9.115614750000001 26.91018025  -50.198776 5.524272 24.198457  -48.8911055 4.77018275 23.57782075  -48.59352175000001 5.29316125 24.07731925  -48.8929235 5.59065125 23.414859  -47.587071 5.657030499999999 22.631261  -47.585253 4.836562 22.79422275  -47.28766925000001 5.3595405 23.29372125  -46.98826750000001 5.0620505 23.9561815  -47.28585125000001 4.539072 23.456683  -47.583435 4.0160935 22.9571845  -46.2794005 4.90294125 22.01062475  -44.973548 4.9693205 21.22702675  -45.97999875000001 4.60545125 22.673085  -44.67414625000001 4.6718305 21.889487  -44.97173 4.148852 21.3899885  -46.2775825 4.08247275 22.1735
[...]
<PointData  Scalars="c_HbCO2"> 
<DataArray  type="Float64"  Name="c_HbCO2"  format="ascii">5.5176143991816940e-27  6.5924976419122833e-27  5.4402040442146903e-27  1.3669705541741026e-27  4.4293264386286407e-26  4.4729868245540519e-27  8.2804281534769734e-27  4.8381198860705802e-27  1.2328794550458394e-26  1.3158780055148483e-26  1.8509426162170666e-24  -1.7302294050560130e-25  -5.0161725093695168e-26  -1.4817062290011646e-25  7.6681150962101277e-27  -2.4827476990021641e-27  1.9378142169714275e-25  2.1201574970652983e-26  2.9341306949580264e-26  -1.7900400540218996e-25  2.3708481451532028e-26  1.9852989410234760e-25  1.5926834906967159e-26  3.0346109999827769e-26  -1.4123382717536349e-26  1.8606194768151018e-26  -2.1760947156008260e-26  5.8559103064719274e-27  5.2129550753936938e-27  3.0745460376168301e-26  -1.5827692636356350e-26  3.8455820467984237e-26  -2.1741441284568770e-26  5.3427725715755279e-27  5.6852607073065235e-27  5.3079759584289971e-27  5.3287961558991057e-27  7.2348386456839952e-27  8.0999708242613319e-27  8.0645932859482586e-27  8.2574238109609440e-27  8.2457650998697228e-27  3.9213234025585827e-27  4.1548039215665204e-27  5.8220955310356910e-27  5.7172837875276080e-27  3.9297149056343818e-27  5.3600502880637247e-27  5.3064251984708745e-27  5.5065026084155512e-27  7.2411050597312901e-27  7.3247419358163091e-27  7.1618430908297830e-27  3.9540826001635026e-27  1.4269791269708683e-27  4.6317150806865130e-27  5.0468577031093038e-27  6.8298712302639978e-27  6.5391088995479674e-27  6.1226009492400772e-27  4.2533748362885216e-27  4.0694891892635400e-27  5.8506218003887016e-27  6.3033879719058144e-27  6.1832525758976596e-27  5.7606623395190259e-27  3.4147802678431068e-27  3.7498518746421110e-27  4.0958987058040620e-27  5.6549545849124595e-27  3.9582668758492039e-27  3.9186967384585944e-27  5.6389357826844234e-27  7.1789232407576694e-27  5.5925226410159569e-27  3.8490606679028778e-27  7.1888477073166286e-27  5.4553127542017704e-27  7.0070123635327848e-27  3.8771522498759895e-27  3.9284638345976195e-27  5.3507428775210343e-27  3.8411100950635952e-27  4.0980126442711709e-27  6.2177887769305949e-27  3.6475435523381387e-27  3.7574035440776629e-27  3.7234045908224038e-27  3.7214076697416095e-27  3.5998275784518375e-27  3.6389701337861916e-27  3.6339097111892838e-27  6.2941305756809220e-26  -1.1096117546387594e-25  -3.2967179151692589e-26  -8.7107548385314014e-26  3.3597789244935251e-25  9.0514742566376076e-26  -3.5895822829246710e-26  4.4276645625399870e-26  -4.9183278198539799e-26  2.9697694587148777e-25  -4.5075405604726009e-26  -2.2294412001865507e-24  -2.0674577389013135e-25  1.3862668614946471e-26  -1.7426676308068932e-25  2.5197463820484174e-24  -9.7610956937642270e-26  -5.6846960463292612e-25  1.9188520590452414e-24  -1.2802821274181003e-25  -8.2489872303617948e-26  -1.7678711076550952e-24  -2.4070821711505159e-25  1.2368311751629013e-26  2.0198398791279177e-25  -5.8192039296693149e-26  -4.2902320232166045e-25  3.6050753552369508e-26  2.6201600987048818e-27  -2.1007772268657301e-25  3.8600782179918403e-27  3.3985655943049421e-27  4.9177795458163918e-27  3.8927318095542860e-27  3.8369536351393543e-27  3.7786302693289919e-27  4.8497653273191192e-27  5.5217116946629326e-27  4.8133548839420792e-27  3.8267162590281774e-27  3.7773921294305403e-27  4.7062071673054072e-27  3.9044242990361394e-27  4.5944013088903951e-27  5.1783982024744060e-27  4.6586562357334732e-27  5.3584447556368256e-27  4.5622182483810172e-27  3.7719471249548176e-27  3.8237493931227913e-27  3.7504120048364849e-27  3.8859250454898435e-27  3.8236923382948160e-27  4.3946749238129665e-27  4.5707766291168093e-27  4.5586440907627484e-27  5.2634898466561608e-27  5.0987025770785545e-27  5.0181530978180596e-27  3.8565469590318982e-27  4.0082024318399911e-27  3.7888666235956783e-27  4.7393532508076241e-27  5.0442347315013287e-27  4.8027109587117202e-27  4.7066712404365710e-27  4.8389700561819482e-27  4.8659206210503738e-27  4.4654643275500369e-27  4.4213988685164661e-27  4.3872813014555130e-27  3.7446989076245745e-27  4.2090936157583911e-27  4.1639020603179114e-27  4.6503921775470798e-27  3.7667508260798865e-27  4.4521336566346961e-27  4.4115342582163117e-27  3.7868349256386499e-27  3.6538193171124289e-27  3.8536643345090386e-27  3.6455963624378545e-27  3.6836113888723054e-27  3.8576350501891476e-27  3.7772461394780392e-27  3.6815932015000517e-27  3.6796614989457365e-27  7.5530945296949854e-27  4.5366164914686305e-27  1.7890147557878265e-27  1.4656828555752383e-27  5.1910444020728111e-27  6.6628175038756921e-27  2.0298937780983501e-27  6.3753517838684380e-27  3.9921812192000014e-27  1.3894724258089310e-27  3.7156787614658475e-27  3.8784815875963258e-27  3.7496717591817235e-27  4.0294738595007001e-27  4.1933012987191407e-27  3.9436967848516327e-27  4.0099335705096789e-27  3.8022985679569582e-27  3.7328423158327602e-27  3.9133295730379390e-27  5.8334959871203717e-27  5.9375368544937219e-27  5.9873745542146212e-27  4.8937736697355781e-27  3.8919544622484969e-27  5.1434217702123235e-27  3.8989337904800711e-27  3.9186617734763127e-27  3.9084567298724200e-27  5.1257636519204819e-27  3.8461522157547140e-27  3.8499452245492236e-27  4.9220832849337772e-27  5.4073814392965082e-27  5.2396668312245891e-27  5.3554304441804656e-27  3.5838919985091680e-27  3.8256607277395251e-27  3.8487466064144416e-27  4.9574738342399377e-27  3.9380089389527372e-27  3.7869503577753027e-27  5.2589640708358517e-27  5.3603998941976084e-27  6.8818485220964328e-27  6.9843971274831375e-27  7.1551346154240717e-27  6.8019563004992912e-27  6.5391246291245660e-27  5.8225381204998154e-27  3.9718507894934690e-27  3.7702533839505146e-27  4.2743761493969110e-27  5.9425089478748738e-27  3.7948764288435043e-27  3.9848401601453189e-27  5.6980140714111269e-27  5.8533042496528508e-27  4.2578573254666742e-27  3.8986821854377592e-27  5.8482899653722566e-27  3.7840228657946915e-27  3.8327872822942897e-27  5.6750623270189492e-27  4.0069763323283506e-27  6.0501370190449354e-27  6.1611588247589570e-27  3.6938455767406296e-27  5.6210271100022734e-27  3.4635370209069315e-27  3.7134654497774067e-27  6.4526754313531088e-26  -6.7524880984218233e-26  -1.7179560832237056e-27  -1.3202177316073624e-25  3.4081540791141694e-25  8.5751259443838723e-26  -6.3496440671619838e-26  4.2505350624814795e-26  -2.6328062046314133e-26  3.1910490878868609e-25  4.6226326500102616e-26  -1.9750073986086315e-24  -2.3936111938595403e-25  -2.6886776750603526e-25  2.3489674895187376e-24  -4.3187989804089809e-25  -1.3524044653103794e-25  1.8815908213325350e-26  -3.9473389069282034e-25  -1.1426815698703105e-25  -2.4260324158173346e-25  1.6450757011639125e-27  5.3984755547020574e-27  6.5159307012432739e-27  6.8819114727638713e-27  6.5164921480657885e-27  3.8599354764232020e-27  5.1816320299855319e-27  3.9167531451196909e-27  5.1716159567934537e-27  3.8616874237114768e-27  4.9134294936057487e-27  5.0454530123926302e-27  5.0289866235705137e-27  6.2801799734726425e-27  6.2970679947590945e-27  5.9816941836251974e-27  3.8811974762819021e-27  5.6550220528580126e-27  5.6584457580267833e-27  5.4280428648797541e-27  5.3706273333044417e-27  5.3392565788872686e-27  5.3808865072802890e-27  6.2410315960061243e-27  6.4325412140488544e-27  6.5035454544618923e-27  6.3211117784946616e-27  3.8222970441394518e-27  3.9291248870196903e-27  5.1407271411616377e-27  5.1064882677164297e-27  6.8150904993465815e-27  5.0324551740125935e-27  5.6408188890525330e-27  5.5737897540666405e-27  5.4244950486926668e-27  4.1729757163064550e-27  3.8590512888885202e-27  5.3574948699465811e-27  5.4555411808417347e-27  3.8716549727548323e-27  5.0988966045346463e-27  6.2112389071531882e-27  -1.4850628447792387e-26  -1.0336911981660416e-26  -4.1350210735003185e-26  2.2333871291109418e-27  3.9906345868627178e-27  1.3598934699103186e-26  6.2259630638258577e-27  1.7679718147368913e-27  6.7015045967314217e-27  4.8728668815225463e-27  6.3999999999999997e-22  -3.2114506888259645e-22  6.3999999999999997e-22  -2.3316377666599320e-22  5.1941188916878071e-23  4.0810690056963386e-23  -2.6185883544469545e-22  6.3999999999999997e-22  -2.5586176063882520e-22  4.8995543084780273e-23  6.3999999999999997e-22  1.3970872752132801e-23  -1.5950867953004500e-22  -1.4831702489411372e-23  -2.2960688940964350e-22  1.0939205936304697e-23  9.9968366378074191e-24  -1.1558597382062005e-23  5.4952356358925956e-23  -2.7441688745405488e-22  5.4356212977253887e-23  6.3999999999999997e-22  5.8527957746217203e-24  -2.8613628448300217e-24  -2.8793577105849499e-24  -1.7888661090319070e-23  -1.9046628414369011e-23  -7.0662661149371529e-27  4.3946952467508269e-27  1.2244457913682351e-26  -3.2983284775685429e-27  6.1009995640877628e-27  5.6622047076032193e-27  3.8877112482236680e-26  -6.3050886509268137e-27  3.2529546915704995e-27  1.0023752523891837e-26  3.3651080658627707e-27  -1.8445770645716445e-26  2.3114376899767893e-27  5.5188339335987261e-27  -1.5213483252750862e-25  1.5968101171073068e-26  -2.1491705372820984e-26  5.3327604922564806e-27  3.7173789551948644e-27  3.9571016982886198e-27  3.7055611542282489e-27  4.1832891020226031e-27  3.6575337549551996e-27  3.8555017595820502e-27  3.8623489559278540e-27  3.6503437336159376e-27  3.9008459946370454e-27  3.7835756519030287e-27  3.5705769623273738e-27  5.3878547479239439e-27  6.8262542388263454e-27  5.1081785534095016e-27  3.8293132196264516e-27  3.8552185809578080e-27  3.9223449445935571e-27  5.1170297823641953e-27  3.9224087308465466e-27  4.2071949733397172e-27  3.8943717237640154e-27  6.3999999999999997e-22  -3.2779143800482497e-22  9.6532217391529989e-24  -2.4567837879293359e-22  3.6688624274320459e-23  2.9892801032179833e-23  -9.2538892342235330e-24  3.0550197717422798e-24  -1.6579037815053327e-23  5.5027592590302247e-23  -1.7676719966873222e-22  2.9078928704805744e-23  -1.0091412525002969e-23  1.0812159538887826e-23  6.3999999999999997e-22  -2.2222243485057794e-22  6.3999999999999997e-22  -1.9406340132234387e-22  6.3999999999999997e-22  -1.3057750713395282e-22  -2.3177743090085142e-22  -1.8543512999342801e-22  4.5570899145011887e-23  3.4703330662495828e-23  6.1396525381300041e-23  6.3999999999999997e-22  -3.0109952444590694e-25  -8.3742224806490543e-24  -2.7971607476290211e-24  6.2079203571783304e-24  -2.1559145866415900e-23  5.9818991480528233e-25  -2.2590590895418295e-23  -1.6550082144806459e-24  6.3999999999999997e-22  6.3999999999999997e-22  -4.3734394314562918e-22  -2.0980931776424954e-22  3.5169098087923048e-23  -2.7210025345253478e-22  -2.1519585452103327e-22  7.1634117728223594e-23  9.8342279785266259e-25  6.3999999999999997e-22  4.6895628850964420e-24  -4.7646607195544999e-24  -4.4891814037028034e-25  -4.5505705097015036e-24  1.5742770158010114e-23  -5.7654570551042772e-24  2.7113365391719326e-24  -6.2321971722046439e-24  3.1763341113639281e-23  -4.1030787441888627e-23  -2.4634685784956459e-22  1.0452507474849610e-23  6.3999999999999997e-22  -1.8870962681568692e-22  -1.1939760983946697e-22  -2.7293559113881872e-22  4.8701886692302725e-23  6.3460028281918937e-23  5.3979483793366963e-23  6.3999999999999997e-22  -2.0112291862043441e-23  -2.3434598583234410e-24  -1.2141642976415748e-23  2.9129267589724671e-24  4.9784387796235359e-27  4.8843331544799706e-27  5.6217844369874625e-27  5.9560528644014507e-27  5.8678581806026062e-27  5.8239073183549096e-27  3.8435830322343033e-27  3.8826370414211422e-27  4.9562878132734498e-27  4.7744480429546159e-27  3.8518314953550040e-27  3.7816278625148521e-27  3.8788933556472689e-27  5.0855126229093872e-27  3.9115148691154275e-27  4.9189603467183645e-27  3.7441922997073227e-27  4.6657680403921933e-27  4.6544920895883075e-27  3.8870178103677112e-27  4.0917889879501345e-27  5.1686609024845914e-27  6.3999999999999997e-22  6.3999999999999997e-22  -2.3884185200848331e-22  -2.0887260881260969e-22  3.4956305970105601e-23  -2.5561769312090205e-22  3.3800218235569959e-23  -2.8452677747062425e-22  6.3999999999999997e-22  -3.1353104205081392e-22  4.2580704180449926e-23  7.3157226091571823e-23  2.1951000207640529e-23  -1.7295176553541704e-23  1.4284540630152516e-24  3.8092855702195501e-24  -5.5849322864692658e-24  -3.9312475300051728e-24  6.8835202223488227e-24  -2.5041609821409898e-22  -1.3064770621523326e-22  6.1427231753272679e-23  4.3833769086193394e-23  4.5227339931955067e-23  6.3999999999999997e-22  -2.1562429024857623e-23  -1.1550210029282069e-23  -2.4679833533334903e-24  2.7328735011433521e-24  5.2331705093037696e-27  5.3875924558848771e-27  5.3081718840201796e-27  8.2574379022586539e-27  7.2171702882257523e-27  8.1850459464024428e-27  7.9877256800276046e-27  8.2217400836500765e-27  3.9546612926610840e-27  5.8188252521567065e-27  4.1357354689036380e-27  5.7177113563991503e-27  5.5083061287558897e-27  5.3035846422908180e-27  7.3255822919428099e-27  7.2341614318048822e-27  3.9562141116820136e-27  5.2406931645841041e-27  1.6533077449115082e-27  4.5012208759014287e-27  6.7930132165514666e-27  6.5092237908863978e-27  6.2069334135906800e-27  6.2962818623185910e-27  4.0814270914012672e-27  5.8429038856463672e-27  4.7635986924361384e-27  -1.6181072276302399e-26  4.4339917201058894e-27  1.8721048447276463e-27  3.0172368055670970e-26  4.7736956699367183e-27  5.6495690451590040e-27  1.3239577654903292e-27  6.3999999999999997e-22  6.3999999999999997e-22  -2.3863742984199985e-22  6.3999999999999997e-22  6.3999999999999997e-22  6.3999999999999997e-22  -3.3775691311457185e-22  6.3999999999999997e-22  -3.2414862336250447e-22  1.7650397374521030e-23  4.9578520819354780e-24  -6.8138412676144998e-26  -7.3809885896759523e-24  4.0913328362935027e-25  3.4065849284657632e-24  -2.1734939261285239e-24  -1.2901223450838971e-23  3.4247802963898967e-23  -5.8133796526210128e-24  3.1628095700139455e-24  1.1415484076474389e-23  -1.8141453819487767e-23  1.5839044733918505e-24  -2.4488815853731146e-22  5.1807204917034532e-23  -4.5305195260194053e-24  -2.2065047007274554e-23  3.8142843449419043e-24  4.4312806640333281e-27  4.8655955456810303e-27  4.9853688352177875e-27  4.8046887765007606e-27  3.7532996313179958e-27  4.3878393421449044e-27  4.4216273777172388e-27  3.7877669005971144e-27  3.5827849578313793e-27  3.7612810694813834e-27  3.7889376198188219e-27  3.7758716315359371e-27  4.2924472921191282e-27  3.8177741126033749e-27  3.7065558279034101e-27  3.7471034867421878e-27  4.2980184443165941e-27  3.8690747564438021e-27  4.2568869771917159e-27  3.7380091322782839e-27  3.9411111831981063e-27  3.8644921816204439e-27  4.6751031438983993e-27  4.6606011098968745e-27  4.7086122750415134e-27  3.8091910757715408e-27  -2.3935900606418681e-22  6.3999999999999997e-22  6.3999999999999997e-22  3.5312846793879102e-23  -2.5618127520135381e-22  -2.8366515515046910e-22  2.0532314044213068e-23  -3.1315836631032387e-22  4.2635174627968491e-23  2.1895003888519268e-23  -4.2288002686461379e-24  -1.7364962826323351e-23  3.3761946560033175e-24  -2.5198650285399467e-22  -1.7488783181924627e-22  4.5610669531985704e-23  3.8393809107131589e-23  6.3999999999999997e-22  -2.0587257300067071e-23  3.6071746724782268e-24  6.3999999999999997e-22  6.3999999999999997e-22  -1.8895008545498551e-22  6.3999999999999997e-22  6.3999999999999997e-22  -3.3836865691210028e-22  7.1119137375540450e-23  -1.7203502259585771e-22  6.3999999999999997e-22  -1.2189198463331298e-22  6.3999999999999997e-22  6.3999999999999997e-22  6.3999999999999997e-22  6.3999999999999997e-22  -1.4254001016098001e-22  -1.0310187237965963e-23  1.8663731585422678e-27  -9.5664585762631077e-27  1.4060394348682900e-27  5.4778529293282755e-27  -6.4452009313226005e-27  3.2684661556151277e-27  3.7297406174883395e-27  1.1463251284826932e-26  -2.5329983086747497e-26  4.6021839946760369e-27  -8.0819514719330793e-26  6.5388012571863719e-26  1.2299905228113267e-26  -3.6190742546262122e-27  -8.1966246846977698e-26  6.0555084642424205e-26  -4.4401695046459679e-27  1.3782769442514679e-26  -3.7844234048520520e-27  -8.4365517061922179e-28  3.2546790722252986e-27  5.5776838123596878e-27  4.4161865529344834e-27  8.1092694562962757e-27  3.4163394172849744e-27  5.4722253366781229e-27  6.8735082326776674e-27  5.6853474661079820e-27  5.7209313275448397e-27  3.7300542214132062e-27  3.2085142842289111e-27  3.8754218263524973e-27  4.0194611640881041e-27  6.3999999999999997e-22  6.3999999999999997e-22  4.2058822889781636e-27  4.3455333264107509e-27  3.8391242604342660e-27  3.8385595958298069e-27  5.5533035586262124e-27  5.4329447801735883e-27  5.0522466639105828e-27  4.8721371863080757e-27  -5.8688039929140647e-25  -4.0346743514702101e-25  4.9747252490679584e-25  -1.1885009513949602e-25  -1.5648990875235177e-25  5.1522141843494873e-25  -1.8886369716779704e-25  -8.2422112815509452e-25  2.1532334387734133e-26  2.6740200092551214e-25  6.2262911581800605e-26  -1.7013961718305913e-25  -7.1850781279067290e-26  -4.1394662661455062e-26  -9.3346541337951409e-25  8.0277968837194475e-27  1.6268668480194361e-25  2.7384560049660104e-25  -1.0265377484426731e-26  -8.9722430670974454e-26  -7.0309784097512575e-26  -1.8173228246942812e-26  -8.1986072138429961e-26  -9.5568592066730036e-25  -1.5728905514237367e-24  7.4843410059241561e-26  1.8254229910125350e-25  -1.9324726142361611e-25  -1.8916853287595543e-24  -6.5012842268021449e-25  -4.2043953962459682e-25  3.1482363399326607e-24  -3.1112837951147327e-25  -7.1018166780424178e-25  -1.0004318943435781e-24  -1.3430046309857348e-24  5.1558135085248940e-25  -1.7800463411613781e-25  -1.3638976469707563e-25  -1.0297672539466864e-25  1.4329456160841996e-25  -2.2206688528374021e-24  -8.5561717582690489e-26  6.8001668752649622e-25  -4.0952002652996976e-24  -1.9205598101375575e-24  8.9495437786946544e-24  2.1905384332103383e-24  -2.5132477306960997e-24  -1.1879968292989925e-24  -1.5815096747994219e-24  1.7060241179569029e-25  -8.6665433107406363e-25  -1.7579442279764198e-25  2.8581120691088648e-24  -9.6554868931444261e-25  -8.8262321828434706e-25  -2.4541721900611889e-24  -1.1839562174986844e-24  -8.0276655871860950e-25  3.7772638146667324e-25  2.2082390575554650e-25  -1.6997932758176543e-23  3.8618684416920132e-24  1.5440539845884779e-23  -1.5880997458519315e-22  3.1925020894628281e-23  4.1835993062644506e-23  1.1977990296527952e-23  8.6863743651351823e-24  -8.1185959085173789e-24  -8.7889139052983916e-24  -6.6172542851574367e-24  -2.1231978263312103e-23  -2.2066996062697494e-23  -3.3093958072099839e-27  4.5055242050886261e-27  1.4726486563778803e-27  4.5427530346530910e-27  4.3760249081451552e-27  3.6191990991915746e-27  6.3999999999999997e-22  6.3999999999999997e-22  6.3999999999999997e-22  -2.1581395352349881e-22  -2.6323233362387697e-22  6.3999999999999997e-22  -1.7117665462214933e-22  4.8559604201429752e-23  -1.3170203504316507e-22  6.3999999999999997e-22  6.3999999999999997e-22  6.3999999999999997e-22  6.3999999999999997e-22  -1.4216321687035965e-22  6.3999999999999997e-22  -6.9897796798060748e-24  -7.3255602423106962e-25  4.9223348330661367e-25  2.7342469216379211e-25  2.5356425554773712e-25  -6.8542492596192913e-25  -4.8790481801075784e-25  -2.1304224685265610e-25  -2.3009746961453895e-25  -8.0360136299167480e-25  9.5507118538589932e-26  3.0022013262927381e-25  3.7823268141669907e-26  -2.1533331055361866e-26  -7.2673648028621873e-26  -1.7954659721697169e-25  8.4291726403887273e-26  -9.7778798319431538e-25  -5.2269944346294128e-26  2.4085997834254207e-26  7.9557946304633808e-27  7.0502982567267162e-28  4.1075751983731235e-26  -8.3085450883185206e-28  -1.7134098338654098e-26  6.3999999999999997e-22  6.3999999999999997e-22  -2.0054149235302294e-22  -2.4436170063910988e-22  -2.8393731083790645e-22  4.5370022803211233e-23  3.9004658823225202e-23  -2.6239701299173349e-22  6.3999999999999997e-22  -3.1239915515893048e-22  3.1999687819430334e-23  7.5103811327241105e-23  2.2054737195605970e-23  -1.6934186673013018e-23  -8.9430264929435983e-24  7.2014783741324494e-24  -2.3962388785639731e-22  6.3999999999999997e-22  1.0261170053143199e-26  -6.2096424631106371e-26  -1.2422776559185206e-25  3.6517744322460034e-25  1.9655432849850577e-25  -4.4