<?xml version="1.0"?>
<VTKFile type="UnstructuredGrid"  version="0.1"  >
<UnstructuredGrid>
<Piece  NumberOfPoints="4531" NumberOfCells="21397">
<Points>
<DataArray  type="Float64"  NumberOfComponents="3"  format="ascii">-52.226008 -4.497148 19.703294  -51.6187155 -4.61795875 20.03789025  -51.44276425 -4.21609525 19.68415025  -51.44276375 -4.94660225 19.500805  -50.6595195 -5.3960565 19.298316  -50.83547125 -5.067413 19.83540125  -50.65952 -4.6655495 19.48166125  -50.6595205 -3.9350425 19.6650065  -50.83547175 -4.336906 20.0187465  -51.011423 -4.7387695 20.3724865  -49.093031 -6.294965 18.893338  -49.26898275000001 -5.9663215 19.43042325  -49.0930315 -5.564458 19.07668325  -49.87627525000001 -5.845510750000001 19.095827  -50.052227 -5.516867250000001 19.63291225  -49.87627575 -5.11500375 19.27917225  -49.093032 -4.833951 19.2600285  -49.26898325000001 -5.2358145 19.6137685  -49.4449345 -5.637678 19.9675085  -49.093033 -3.372937 19.626719  -49.26898425 -3.7748005 19.980459  -49.0930325 -4.103444 19.44337375  -49.87627625 -4.38449675 19.4625175  -50.0522275 -4.78636025 19.8162575  -49.26898375 -4.5053075 19.79711375  -49.4449355 -4.176664 20.334199  -49.87627675 -3.65398975 19.64586275  -50.052228 -4.05585325 19.99960275  -49.796838 -4.980391 21.041679  -49.62088675 -4.5785275 20.687939  -49.444935 -4.907171 20.15085375  -50.22817875 -5.188223750000001 20.1699975  -50.22817925 -4.457716749999999 20.35334275  -49.62088625 -5.3090345 20.50459375  -50.4041305 -4.85958025 20.70708275  -52.226008 -7.383542 18.812959  -51.2092835 -6.92155125 19.4989525  -51.44276375 -7.11139775 18.83305375  -51.44276375 -6.38979925 19.0556375  -50.42603925 -5.9278085 19.741631  -50.6595195 -6.117655 19.07573225  -50.6595195 -6.8392535 18.8531485  -50.42603925 -6.649407 19.51904725  -50.192559 -6.4595605 20.184946  -51.99252775 -7.1936955 19.47885775  -51.2092835 -6.19995275 19.72153625  -50.97580325 -6.73170475 20.16485125  -51.7590475 -7.003849000000001 20.1447565  -52.226008 -6.6619435 19.03554275  -51.44276375 -5.66820075 19.27822125  -52.226008 -5.940345000000001 19.2581265  -51.99252775 -6.472097000000001 19.7014415  -51.99252775 -5.0289 20.146609  -52.226008 -5.2187465 19.48071025  -51.2092835 -5.478354250000001 19.94412  -51.99252775 -5.750498500000001 19.92402525  -51.7590475 -5.560652 20.589924  -51.292087 -6.624156 21.476554  -51.52556725 -6.814002500000001 20.81065525  -50.742323 -6.541858250000001 20.83075  -50.97580325 -6.01010625 20.387435  -51.52556725 -6.092404 21.033239  -51.7590475 -6.2822505 20.36734025  -49.64279500000001 -6.37726275 19.539142  -49.87627525000001 -6.56710925 18.87324325  -51.20928425 -7.6159805 19.20754225  -50.19255975 -7.15398975 19.89353575  -50.42604 -7.34383625 19.227637  -50.1925605 -7.848419 19.6021255  -50.975804 -7.426134 19.873441  -50.74232375 -7.2362875 20.53933975  -49.64279575 -7.071692000000001 19.24773175  -51.7583895 -4.742323000000001 20.7782335  -51.99186975 -4.210571 20.3349185  -51.151097 -4.86313375 21.11282975  -51.38457725 -4.33138175 20.66951475  -51.7577315 -3.923994 20.966543  -51.52425125 -4.455746 21.409858  -51.290771 -4.987498 21.853173  -51.38523525 -5.149710750000001 20.48120525  -51.52490925 -5.274075 21.2215485  -51.291429 -5.805827000000001 21.6648635  -50.91827475 -6.213214750000001 21.36783525  -51.151755 -5.68146275 20.92452025  -50.5444625 -5.8022735 21.2591165  -50.91761675 -5.39488575 21.55614475  -51.289455 -3.35084 22.229792  -51.290113 -4.169169 22.0414825  -50.91630075 -3.75822775 21.93276375  -51.52359325 -3.637417 21.5981675  -51.150439 -4.04480475 21.30113925  -50.5431465 -4.165615499999999 21.6357355  -50.91695875 -4.57655675 21.74445425  -50.5438045 -4.9839445 21.447426  -50.16999225 -4.573003249999999 21.33870725  -50.77728475 -4.4521925 21.004111  -50.17065025 -5.39133225 21.15039775  -50.77794275 -5.2705215 20.8158015  -48.921684 -8.036866 26.039924  -47.63784925 -7.62574625 25.349594  -47.934365 -7.873507249999999 24.671486  -47.63399525 -8.49879325 25.043568  -46.3463065 -8.960720500000001 24.047212  -46.3501605 -8.087673500000001 24.353238  -46.64667625 -8.3354345 23.67513  -46.947046 -7.7101485 23.303048  -46.65053025 -7.4623875 23.981156  -46.3540145 -7.2146265 24.659264  -44.972408 -7.383431 20.566172  -44.67589225 -7.13567 21.24428  -44.3755225 -7.760956 21.616362  -45.959727 -7.54678975 21.93461  -45.66321125 -7.29902875 22.612718  -45.3628415 -7.924314750000001 22.9848  -43.778637 -8.138481000000001 22.666552  -44.07900675 -7.513195000000001 22.29447  -44.3793765 -6.887909000000001 21.922388  -43.786345 -6.392387 23.278604  -44.08286074999999 -6.640148 22.600496  -43.782491 -7.265434000000001 22.972578  -45.3666955 -7.05126775 23.290826  -45.06632575 -7.67655375 23.662908  -45.06247175 -8.54960075 23.356882  -45.07017974999999 -6.80350675 23.968934  -47.28347575 -8.27120725 25.77666025  -45.995787 -8.7331345 24.78030425  -45.6452675 -8.5055485 25.5133965  -45.999641 -7.8600875 25.08633025  -43.4319715 -7.037848 23.70567025  -44.71195225 -8.322014750000001 24.08997425  -43.4281175 -7.910895 23.39964425  -43.07759799999999 -7.683309 24.1327365  -44.71580625 -7.44896775 24.39600025  -44.36143275 -8.094428749999999 24.8230665  -42.368851 -8.974231 24.986869  -42.7232245 -8.328769999999999 24.55980275  -43.073744 -8.556356000000001 23.8267105  -44.35757875 -8.96747575 24.5170405  -44.00705925 -8.73988975 25.25013275  -50.30650375 -3.504027 21.79328075  -50.74034949999999 -3.35636425 21.57902375  -50.191244 -3.3618885 20.9282555  -49.93334950000001 -3.91141475 21.4962525  -49.75739825 -3.50955125 21.1425125  -50.36719524999999 -3.763752 21.2819955  -49.32355250000001 -3.657214 21.3567695  -50.679658 -3.09663925 22.090309  -49.69670675 -3.24982625 21.65379775  -50.1305525 -3.1021635 21.43954075  -50.069861 -2.8424385 21.950826  -49.20829275 -3.5150755 20.49174425  -49.6421385 -3.36741275 20.27748725  -49.384244 -3.916939 20.84548425  -49.81808975 -3.76927625 20.63122725  -49.0323415 -3.113212 20.13800425  -49.581447 -3.10768775 20.7887725  -48.97165 -2.853487 20.6492895  -49.14760125 -3.2553505 21.0030295  -48.850267 -2.334037 21.67186  -49.08690975 -2.9956255 21.51431475  -48.9109585 -2.593762 21.16057475  -49.5207555 -2.84796275 21.30005775  -49.460064 -2.58823775 21.811343  -49.56019525000001 -4.3188025 21.19922425  -49.994041 -4.17113975 20.98496725  -48.66092424999999 -3.48387075 20.41261525  -48.8368755 -3.88573425 20.76635525  -48.776184 -3.62600925 21.2776405  -48.2288155 -3.5948045 21.1985115  -48.60023275 -3.22414575 20.9239005  -48.72161575 -3.74359575 19.90133  -48.897567 -4.14545925 20.25507  -48.3501985 -4.1142545 20.175941  -48.289507 -3.8545295 20.68722625  -48.53954125 -2.96442075 21.43518575  -47.607364 -4.855572 20.725163  -47.91808974999999 -4.22518825 20.96183725  -48.15473249999999 -4.88677675 20.804292  -47.97878125 -4.48491325 20.450552  -48.46545825 -4.256393 21.04096625  -48.52614975 -4.516118000000001 20.529681  -48.702101 -4.9179815 20.883421  -49.01282675 -4.28759775 21.12009525  -49.2494695 -4.94918625 20.96255  -49.07351825 -4.54732275 20.60881  -47.25476325 -7.27808875 26.11146775  -47.6328735 -6.633894 25.585238  -45.9709285 -6.866969 25.42113775  -46.34903875 -6.22277425 24.894908  -46.344063 -5.230922 25.130552  -45.96595275 -5.87511675 25.65678175  -45.58784249999999 -6.519311500000001 26.1830115  -48.91670825 -7.04501375 26.275568  -48.9117325 -6.0531615 26.511212  -47.2497875 -6.2862365 26.34711175  -47.62789775 -5.64204175 25.820882  -48.538598 -7.689208499999999 26.80179775  -48.53362225 -6.69735625 27.03744175  -48.155512 -7.341551 27.5636715  -46.87167725 -6.93043125 26.8733415  -48.901781 -4.069457 26.9825  -47.24481175 -5.29438425 26.58275575  -47.622922 -4.6501895 26.056526  -48.90675675 -5.06130925 26.746856  -48.52367075 -4.71365175 27.50872975  -48.5286465 -5.705503999999999 27.27308575  -46.8667015 -5.938579000000001 27.1089855  -48.1455605 -5.3578465 28.0349595  -47.38934 -6.646236 29.087419  -47.76745025 -6.00204125 28.56118925  -46.48859125 -6.58277375 27.63521525  -48.15053625 -6.34969875 27.7993155  -47.772426 -6.9938935 28.32554525  -44.68709375 -6.45584925 24.73080775  -45.06520399999999 -5.8116545 24.204578  -46.34269999999999 -4.32434375 25.30872475  -46.64002825 -4.6724245 24.6750665  -47.91888725 -4.091692 25.6010405  -46.9359935 -4.113927 24.219581  -44.970206 -4.158397 21.456662  -44.67287775 -3.81031625 22.09032025  -45.95309974999999 -4.136162000000001 22.8381215  -44.3769125 -4.36881375 22.54580575  -43.783619 -4.5792305 23.6349495  -44.07958425 -4.020733 23.179464  -45.35980625 -4.346578750000001 23.92726525  -45.6557715 -3.78808125 23.47177975  -44.3755495 -3.4622355 22.7239785  -44.67424075 -4.7168945 21.9121475  -44.3782755 -5.275392 22.367633  -45.6571345 -4.6946595 23.293607  -44.08094725 -4.927311250000001 23.00129125  -45.36116925 -5.253157 23.7490925  -43.784982 -5.48580875 23.45677675  -44.08231025 -5.8338895 22.8231185  -45.063841 -4.90507625 24.38275075  -45.35844324999999 -3.4400005 24.105438  -43.782256 -3.672652250000001 23.81312225  -44.07822125 -3.11415475 23.35763675  -45.062478 -3.998498 24.5609235  -51.75978175 -7.78508625 19.83634575  -51.5263015 -7.59523975 20.5022445  -50.743058 -8.01752475 20.230929  -51.2935555 -8.1866305 20.8597325  -51.29282125 -7.405393249999999 21.16814325  -45.989047 -5.199362 18.920205  -46.39362625 -5.113414499999999 19.3714445  -46.609399 -5.865057999999999 19.27770625  -46.765043 -5.47326275 18.91348825  -47.541039 -5.7471635 18.9067715  -47.01397824999999 -5.7791105 19.72894575  -47.16962225 -5.38731525 19.36472775  -47.385395 -6.13895875 19.2709895  -47.229751 -6.530754 19.6352075  -46.79820549999999 -5.027467 19.822684  -48.161391 -6.4128595 19.26427275  -48.56597025000001 -6.326912 19.71551225  -48.72161425 -5.935116750000001 19.35129425  -48.3501975 -5.5752685 19.8092505  -47.78997425 -6.05301125 19.722229  -48.1945535 -5.96706375 20.1734685  -48.0389095 -6.358859000000001 20.5376865  -47.63433025 -6.4448065 20.086447  -48.
[...]
<PointData  Scalars="c_HbCO2"> 
<DataArray  type="Float64"  Name="c_HbCO2"  format="ascii">6.3999999999999997e-22  -2.5136978034883031e-22  6.3999999999999997e-22  6.3999999999999997e-22  6.3999999999999997e-22  -3.4209257577273659e-22  6.3999999999999997e-22  6.3999999999999997e-22  -4.0009185681583353e-22  2.0323985100232432e-24  6.3999999999999997e-22  -3.4193887533933513e-22  6.3999999999999997e-22  6.3999999999999997e-22  -4.0332671831910782e-22  6.3999999999999997e-22  6.3999999999999997e-22  -4.0815273933244410e-22  -2.1075805925260631e-23  6.3999999999999997e-22  -4.4030506798738114e-22  6.3999999999999997e-22  6.3999999999999997e-22  -3.5517300864661531e-22  -3.0278650051428880e-22  7.6772956045339701e-24  6.3999999999999997e-22  -2.5461120617369356e-22  1.3133439223924941e-23  4.8598370957646882e-23  5.3651805520288902e-23  -1.0133269538637771e-22  4.5794168858216163e-23  9.5708617344193096e-24  -1.6126189576865961e-25  6.3999999999999997e-22  -2.3864818488634102e-22  6.3999999999999997e-22  6.3999999999999997e-22  -1.9369200649580276e-22  6.3999999999999997e-22  6.3999999999999997e-22  -2.7383371686529669e-22  2.3292500685304487e-23  -2.9775437292913286e-22  -2.4368457240346222e-22  7.5045049928772151e-23  2.3628473355389921e-23  6.3999999999999997e-22  6.3999999999999997e-22  6.3999999999999997e-22  -3.3651735232533424e-22  -3.6746279035002715e-22  6.3999999999999997e-22  -3.0937656818808197e-22  -3.1035834254566026e-22  -1.5313756914461965e-23  3.8191501138309244e-24  6.3547955915558149e-24  -3.4718704453784132e-24  -4.3167896019638685e-23  1.1212955001568505e-23  1.8747463291070599e-23  -2.2935806350729298e-22  6.3999999999999997e-22  -2.2014738956225509e-22  4.6610839822180579e-23  -2.6913854569978348e-22  2.7039010008416927e-23  3.4580922909765550e-23  -1.7350220052370322e-23  -2.5340684179249330e-22  6.5970029138471297e-23  -2.4488240839574791e-22  -1.9876184691202400e-23  8.0041218639342572e-23  -1.0870331870516365e-23  4.1706833480679617e-24  -6.5287627667038108e-25  -5.8130817962751341e-24  -7.1106223169001164e-24  -1.2681699096981049e-24  3.8000253043042782e-24  8.7070233616079088e-24  1.8066838334472653e-24  -2.8641054732306992e-24  2.8303899705119582e-24  2.0665622976118521e-26  -1.6541061200135292e-24  1.0504274537577008e-23  -9.5068095631147175e-24  -8.2699943299312069e-25  1.7767195011918530e-24  -1.4269113659324810e-24  2.3175321228707155e-24  -1.1989906515423692e-23  -6.5315261756699870e-24  2.6152397756488868e-23  5.1204645438558660e-27  6.2778728159299459e-27  2.8064713393906950e-27  5.8654360321290282e-27  1.3267548841923997e-26  3.6063098097000599e-27  9.1017485364616387e-27  4.4579467926247675e-26  5.5514087118177948e-27  1.1813408271064040e-26  3.6282735263342308e-24  -2.5026264677839309e-25  -3.4861152029830006e-25  -1.4817002330755356e-25  -1.0662352260876107e-26  -6.5155195884707070e-28  3.7735830671187268e-26  2.1365181652470054e-26  2.7429163762880567e-25  2.2795527031281424e-26  -5.8855424041574532e-27  -2.4565637978612418e-26  -1.0979691864927544e-26  6.3471044822672254e-27  2.8746109890916879e-27  5.5115413777692388e-27  5.3738035739109360e-27  8.0206148768820454e-27  8.3092887797941908e-27  7.9376553645215974e-27  3.3746118302026521e-27  2.9939046359555500e-27  5.4025443736557697e-28  6.6086377697263557e-27  4.2786812315001177e-27  6.9646065236322438e-27  4.3178026953491387e-27  4.1042193177802301e-27  3.4949972553900776e-28  4.7519277889897299e-27  6.3013774253814705e-27  3.4816275440114746e-25  -3.6993070085086693e-24  1.2501207569003135e-23  5.1953628348699284e-24  -1.6789754978877060e-23  -1.2438247731638722e-23  -2.0707056157321918e-24  -8.0432188269112338e-27  1.2165558985884265e-24  -1.6807442480209542e-24  1.8004146510182334e-24  2.3156661592896996e-23  -2.0685694158252328e-22  -1.4431029039511575e-23  5.7736222769244880e-23  -2.9889261702373217e-22  4.7647291072634804e-23  2.3476076530046453e-23  -2.1716649310425975e-23  3.5040473178087725e-24  7.7646609922886153e-26  1.5958290208415424e-24  -4.1148103323250312e-24  2.1811132492596323e-24  -2.8770323447042915e-24  -1.7556130359046058e-23  3.7998961078200477e-23  -7.4732966269763394e-24  -4.8077580215237960e-24  3.9079912441954715e-24  1.2920238504077766e-23  -2.2849842629327260e-22  -1.3845829329762804e-23  -1.1749398225257595e-23  1.7463008460907101e-23  -2.6885499777000064e-24  1.2782820737278289e-23  -1.8092543870458829e-24  -2.4335754546983468e-24  1.5580561053995719e-23  -1.5709706999930757e-24  7.4242617125133288e-24  -9.7572419390988291e-25  9.1032110057157530e-25  -7.0339398415193009e-24  -1.9544636218837454e-23  5.7890398149554963e-27  3.9904949483659818e-27  7.8780020182589218e-27  4.7479007807419103e-27  1.2084973713647431e-26  7.9691322956555232e-27  8.1956068580387265e-27  3.5568870111561886e-27  5.2414440884540820e-27  5.6649446810349646e-27  6.7287525838569320e-27  3.8359420262259690e-27  3.7475269917339940e-27  4.0762608322595453e-27  5.8213677356996716e-27  5.2110326471845044e-27  5.4411195196615668e-27  5.8395114534406462e-27  3.0861927737024567e-27  4.0078507290216875e-27  3.9386573670040413e-27  5.8654362294799171e-27  4.1475880063128309e-27  3.9297961639880669e-27  3.9436983622581607e-27  5.2626277696972271e-27  4.0757831811221138e-27  4.0725601330861090e-27  5.6274090672840433e-27  5.5152215458673201e-27  4.5246947951756834e-27  5.7758825903450224e-27  2.5410942218923501e-27  4.3997311705729364e-26  1.1415831289508740e-24  9.9806993586143340e-28  -9.2236715736761055e-26  -1.1113612910833269e-25  2.1438252576112448e-26  3.1987837646489820e-27  -2.4092606549925480e-27  3.0099476836556733e-26  1.7813267572010347e-25  -1.1442780672059539e-25  1.1496205656434047e-25  1.6607739705286420e-26  1.5255996009871402e-26  -1.0310858969923634e-26  -8.3146759661904070e-27  1.6489607593071085e-26  6.4397698501584301e-27  -2.4729584809853215e-27  -1.7053556667199441e-26  2.6891730003364095e-26  6.1877694108129612e-27  4.5171802132720471e-23  -1.9060807734483532e-23  -1.5930962474253720e-23  -2.4243934376847512e-24  3.0169367155143339e-24  6.3999999999999997e-22  -2.5536176289749224e-22  -2.7800517370569548e-22  6.3999999999999997e-22  6.3999999999999997e-22  4.4954274057943431e-23  -3.9394436901963402e-22  -3.1900534330911264e-22  5.2799636084916467e-23  1.1187407059066095e-23  -2.3257764065392643e-22  3.3329487191050027e-23  -3.3045996625207874e-22  -3.6069103410261845e-23  4.3515887899974832e-23  3.6313333576010543e-23  6.0126035093113954e-24  2.5603138939408954e-24  -2.8546971785001285e-22  3.5013544780805673e-23  8.2733016213843803e-23  1.0114624071955758e-23  6.3999999999999997e-22  -2.4757462970210205e-22  5.1635528419179421e-24  -1.1198327370898952e-23  -3.9101077150423508e-24  3.4319115087141863e-24  -8.9154994552251633e-24  -7.3206052546413411e-24  7.1557893397591222e-23  -7.2299345674379047e-23  7.2304664202497269e-24  6.3999999999999997e-22  6.3999999999999997e-22  6.3999999999999997e-22  -3.0733746214392039e-22  6.3999999999999997e-22  6.3999999999999997e-22  -3.4833661953701968e-22  -3.3766120829609929e-22  6.3999999999999997e-22  -3.6955287548529265e-22  -3.0406397838105648e-22  2.0346755029958328e-23  -8.1044144901818937e-23  5.4958406511043933e-27  7.1214204354136049e-27  7.2251782709121766e-27  7.4481221248921997e-27  7.4601472152014970e-27  5.6654148815315092e-27  5.3634494216156780e-27  5.2907909961457728e-27  6.0499843432656654e-27  5.7681881531121108e-27  5.2980125124967986e-27  5.3055604965798899e-27  6.5633921694036521e-27  7.0051529242091355e-27  6.8717239600555856e-27  6.8521941534919502e-27  7.1675553780173093e-27  3.6260112420026011e-27  3.8219866010287952e-27  4.0089200060513618e-27  4.0475322515620505e-27  5.7892214646814907e-27  6.1347596298113203e-27  4.2474391269950402e-27  4.1875064473744600e-27  3.6934984740896284e-27  5.8937228240569570e-27  3.8725903618487974e-27  3.9812339191412095e-27  3.9771700057772682e-27  5.8182445169884813e-27  5.8774162838074155e-27  5.6575148462744858e-27  6.2070723249766179e-27  3.9432891239304273e-27  3.5250373994973359e-27  5.7394076884488208e-27  3.7851356176060118e-27  5.5478552856985254e-27  3.7584853973713219e-27  -2.0480744469675344e-27  -7.3661005757452199e-27  -1.4268026756250122e-26  2.3993165874753811e-25  -7.4566576341547776e-27  -2.5997996385848144e-26  -8.8541170568760676e-27  -1.4594841583800804e-25  -8.9001667593864703e-26  -1.4334752845986523e-23  2.9539914084134276e-24  -3.0650332563405427e-23  1.7726218190215055e-23  4.6922387120824250e-26  -1.0531310250448827e-26  -7.6699888708055090e-26  -9.5572511249543716e-27  -5.6950283980569933e-27  -4.7570262132317845e-26  3.3923352800254316e-25  -5.0841404576837358e-26  4.0386349748660167e-26  -8.0488329247283548e-29  3.2075582112720061e-27  1.0222065876687447e-26  3.8172683875780724e-27  2.4307111752239450e-27  5.6446185578418117e-27  4.8668726283118319e-27  -4.3818138038460932e-25  -2.0678298303431719e-26  -7.2239964941572678e-26  3.4393570674575370e-27  3.6505230084514903e-26  1.3123554771860893e-26  -4.3595957300832461e-26  1.4063669029691471e-28  -1.3132417239805200e-26  -4.8204325474204635e-26  3.5796853246121000e-26  1.3783403520168614e-26  -4.1877798188950442e-28  1.0116943531257085e-27  1.3485935996302896e-23  1.0071626844341501e-24  7.9187607925093350e-24  1.6221874644594500e-23  -2.9134157464007482e-25  -3.3358363032508869e-24  -3.3853483426809335e-26  -7.4994166995317727e-24  3.3899514381749001e-23  1.9277195661611657e-25  -1.6377558447703809e-23  -3.5248799474633250e-25  -2.3945892466440105e-25  3.3846154127263142e-25  -8.0721340181736435e-25  -2.0594791144511458e-26  5.4181344063613860e-27  -1.0790453257789800e-26  5.8639643721318223e-27  1.3582015231924724e-27  2.1518371085082403e-27  6.0609621880028604e-27  1.1059230206389513e-26  -8.7505015231235703e-26  -7.8309551512843854e-26  -6.8673376161579576e-26  4.4735064658889390e-25  -7.5261189576956849e-26  2.2181322051376326e-26  -2.1432798188388123e-25  -2.8995404957161540e-26  2.2515070126056132e-26  7.9535757602481474e-27  -6.4828016974478625e-27  -1.4439383695494339e-26  3.0526209258841979e-26  6.7790996422826737e-27  7.4599919466034577e-27  4.3815764566767333e-27  1.1456276372845252e-26  5.2119627825394406e-27  2.4425519454509520e-28  -2.0993319241494799e-27  4.1306152804388290e-27  2.3059474110695871e-27  4.6757608768729005e-27  3.5961097314587479e-27  3.9361414451935676e-27  5.6634231579659833e-27  3.9969667846422816e-27  3.8622277029217924e-27  5.4259458514663321e-27  6.4940407570274515e-27  6.5362143701906041e-27  6.8294026989642168e-27  3.8562486832807533e-27  5.2016802336776052e-27  5.1847115832497425e-27  3.9287392984912887e-27  3.8408161053116201e-27  4.9945064542615451e-27  5.0744839216854063e-27  4.8932244230396781e-27  6.0231362787229579e-27  6.2885932297349953e-27  6.3229544782000022e-27  3.8943731391737599e-27  5.5464550365933548e-27  5.4380443474264618e-27  1.1667859857588979e-24  -6.7742885375143260e-24  -6.9716828518627354e-24  1.9420107555974289e-24  4.6163636885053700e-23  5.1482238833571159e-23  -1.0844831843699016e-23  -1.8504237990092186e-23  2.4265528818637850e-24  -1.7227652828827301e-24  4.5931799204889887e-23  -8.0764504281876956e-24  -3.8241387421237317e-24  -2.7234812971083247e-24  -2.7450096221875719e-23  -7.1339742381916259e-25  3.5955075158930799e-24  -4.1514470617363249e-24  -2.6836069122198935e-24  7.9156049492670377e-27  8.1765325255221914e-27  1.4208080676826718e-27  4.9300570159228752e-27  2.2090695268781190e-27  5.7456670629910347e-27  4.3843468283582244e-27  3.1808865966370082e-27  5.9695476266919903e-27  6.8820558762707885e-27  3.9317514694833380e-27  1.8910161242496621e-27  5.3641895420398145e-27  6.2906389477219396e-27  3.9144157740751311e-27  5.1164007471931146e-27  3.9052419475952350e-27  4.2124234748795895e-27  -5.8382007139370763e-26  -1.6893290593780916e-26  1.5625548563732560e-25  -9.4265874700999513e-26  3.5508106757385318e-26  2.9888493935277004e-25  2.8728128991149965e-25  1.6392381666582859e-25  -1.5453460267806929e-24  1.8966849895119428e-24  -1.6421060108741940e-24  -8.5662377417533452e-25  8.5997037856372184e-25  2.1694100933663469e-24  -1.0058942873736894e-25  -2.0456748433458112e-24  -1.4555599076853327e-24  -7.0747221883020737e-25  3.5572422991895708e-25  -7.0727136622421886e-26  -6.2356833110023655e-25  -2.0919426831237532e-24  5.5194399659594719e-25  -9.1108097295948988e-25  -5.7472866037812115e-25  1.3997239206612938e-24  -9.7201344450406022e-25  -3.5602959000151372e-24  2.5621540270075935e-24  2.2535033405729750e-24  2.3763027842511147e-24  -4.8926906312806681e-26  -1.9915023781162233e-26  -3.1822632757443198e-27  2.3689211989009913e-25  -9.0028957787676653e-26  -8.8154307409315019e-25  1.8422859045467060e-28  2.7760756345811339e-24  -3.6499171291556923e-25  1.4161110034762137e-24  2.6490141918064928e-24  2.1017094849697444e-27  -4.2459551490668351e-25  -1.9981155728498146e-24  -3.4598575272120371e-24  -9.8302104059903809e-25  -6.8832273371874545e-25  -1.9567076622266805e-25  -4.3954807578252560e-25  -9.2075832206218407e-25  1.3505012853313829e-25  3.4158598919818427e-26  -7.4866024366571721e-25  -1.6347065915528590e-25  2.9829994330059393e-25  -3.0147127210424377e-25  -9.5036739891419868e-25  1.2461476269626597e-25  -2.0812666064081510e-25  7.6738585248335190e-26  3.9345196937046296e-25  -5.7706391541829518e-26  6.0987384667994904e-26  -2.0032247907276227e-27  -1.2244133298443020e-24  1.7323411535070104e-25  -2.8877728300209540e-24  1.7682573114346092e-25  1.1258707608628001e-24  -6.5122728574154866e-25  -1.4337624351551362e-25  -7.9059612110752704e-25  -3.0269936291189173e-26  -1.1681479455865292e-25  -1.5260963507227120e-25  7.3108859903896384e-27  2.3455867733786431e-27  6.0964187616304431e-27  4.1037330538076266e-27  3.8841808360610097e-27  6.7401233956459667e-27  6.3382209625913417e-27  5.3910215946056354e-27  7.1528926591935451e-27  5.7522118824836562e-27  5.5445990600534250e-27  7.3122786326002263e-27  -7.3198740222418114e-25  2.7674559780935810e-27  5.6970172566318401e-26  -5.6448497262718218e-26  -4.6529272573073292e-25  2.2008682962585465e-25  -3.9541741599673801e-26  9.0923266158986647e-26  -1.5767451062319372e-26  1.6014322511546587e-25  -5.5297262064886904e-26  -5.6985208746112180e-26  -2.8433453892927398e-26  -3.1471674518643987e-25  2.0480639675447383e-25  4.4521119234762203e-25  2.0646725781134217e-25  -8.3297444182911398e-26  -7.3079798929064374e-26  -1.3602772928945549e-26  4.6266637935463652e-25  -1.2078023982303669e-25  -1.2680020650695397e-24  1.4234285827564966e-23  -3.8711488492262362e-23  -2.4122683588196854e-22  6.3999999999999997e-22  -2.2337412281964980e-22  -2.5184990935106256e-22  5.9845581445713758e-23  6.3999999999999997e-22  -2.7478632589734176e-22  2.7256313964704448e-23  -2.4491353787686173e-22  7.3755789670690724e-23  -2.2327589904287278e-25  -1.7280900820318115e-25  2.8907047501662613e-25  -3.5444110627452322e-25  -6.2315632540785434e-26  5.3203393220045035e-25  5.8351367993069473e-26  -6.0261080825318427e-25  -5.6890546054024502e-26  9.8476172752822682e-26  1.1204163526678018e-26  -8.2202496417866354e-27  -7.5011218209469601e-25  6.3999999999999997e-22  -2.9766746910083516e-22  -2.0780934655815702e-22  -5.0579281500205595e-24  -5.7628756450856850e-24  -2.5155117813611522e-24  1.1416733476738251e-23  6.0137083024024158e-23  2.3397538292047070e-23  -1.5066894198836426e-22  -1.0743848845362808e-23  5.1706075452983474e-23  2.0162687533714337e-23  -4.3473487739432824e-24  -3.5727404490397620e-24  5.3590364627034167e-25  9.2025453809571218e-25  1.5531228867277136e-23  -1.6738392332997540e-23  -1.2228053393167164e-23  6.3999999999999997e-22  6.3999999999999997e-22  -2.2760744793674917e-22  6.3999999999999997e-22  -3.3317733725356881e-22  6.3999999999999997e-22  6.3999999999999997e-22  1.9957786595369278e-23  6.3999999999999997e-22  6.3999999999999997e-22  -1.5543296363731785e-22  -2.3935836125856235e-22  6.3999999999999997e-22  6.3999999999999997e-22  3.7433601703820319e-25  6.3999999999999997e-22  6.3999999999999997e-22  6.3999999999999997e-22  -3.7584458186725413e-22  6.3999999999999997e-22  6.3999999999999997e-22  -3.0387119279193859e-22  6.3999999999999997e-22  -3.2466255203148625e-22  6.3999999999999997e-22  -1.5757568948503554e-22  -3.4856968187247268e-23  6.3999999999999997e-22  -2.9660602884549063e-23  -8.8664512800694262e-24  -2.9547946155545417e-24  -6.1097606422468640e-24  3.6431449661874697e-24  2.0335717126129487e-25  -6.7445916617306201e-25  5.7794163897609642e-25  -1.1951879076492306e-24  1.6726264257257953e-25  6.3999999999999997e-22  6.3999999999999997e-22  -2.0227030300148702e-22  6.3999999999999997e-22  6.3999999999999997e-22  -2.6674809807420495e-22  6.3999999999999997e-22  6.3999999999999997e-22  6.3999999999999997e-22  -2.5961588853937591e-22  -4.8273069041711453e-23  -1.9854964211465716e-22  4.6147186050113585e-23  1.7384767270376133e-23  -1.7524533164478021e-22  -2.7501162221350195e-23  -3.3926087401936676e-23  4.7921334976009297e-24  -6.2922530193602691e-23  -3.1204287641534411e-23  8.2718229167714530e-24  -1.6530656779060041e-24  2.3139189803113861e-24  2.7033676061429871e-24  1.4149729571010961e-23  -9.0507803448304599e-24  4.4811808038023764e-23  5.6818948526634567e-26  -6.6578017633005519e-24  1.6935395121254926e-24  -1.8745692369090560e-24  8.0864486581172385e-25  -3.9772803044277141e-24  -1.0807696170634903e-23  -1.7610026641770391e-23  -1.4510159266537868e-23  -2.6404966305700192e-22  5.4167072019425385e-23  -3.5509969324618426e-22  6.3999999999999997e-22  6.3999999999999997e-22  -2.4792677050353556e-22  6.3999999999999997e-22  6.3999999999999997e-22  6.3999999999999997e-22  -2.5025623212386937e-22  6.3999999999999997e-22  -2.3036218037211578e-22  4.6659139362612249e-23  4.9877965406042519e-23  1.6958182832296976e-23  -1.8298213420356172e-22  -3.3332961274996912e-23  -2.9028476322245419e-23  1.9947839000567686e-25  2.4363326834766648e-25  5.4070394473819817e-26  -5.8583697608098599e-26  2.9824970068033667e-27  -4.8088519758251532e-25  2.1797341662216648e-25  1.3266856970382778e-26  -9.8401007700132350e-26  -1.6051185635469751e-26  -4.1929956755408329e-27  1.4249567502410527e-27  -7.0460523614772751e-26  -1.9082815564562719e-25  -1.8803076409973938e-25  1.8674867066775217e-26  -6.0219513736280404e-25  -1.3815042313278827e-24  -1.8943547961998982e-25  5.3578576675171235e-27  3.9596753898646572e-27  5.1693499576666514e-27  3.9084937690272719e-27  5.2842509408969316e-27  6.0055163086898545e-27  5.1952114062250711e-27  5.6533228301919474e-27  5.8881725528038613e-27  3.8476141913886929e-27  3.9125619101060535e-27  3.8587924028211960e-27  5.0894345163059133e-27  3.6394262709401460e-27  3.7684409173357401e-27  3.6114266443001119e-27  3.7547016345990978e-27  3.6533678555453861e-27  3.6567924155574112e-27  3.7247986411834939e-27  3.6543870929021443e-27  3.6501533962918360e-27  3.8498430425396177e-27  3.8342328363935869e-27  3.6633407215854335e-27  3.7943214695855868e-27  3.6711297402984772e-27  3.6702910083103347e-27  3.6547972850617581e-27  3.8875009851768209e-27  3.8695833007070894e-27  3.8714253282308908e-27  3.6799722194309325e-27  3.9455657579750332e-27  4.0008545418953169e-27  4.0216002472449847e-27  3.9348067539472022e-27  4.0965073083328312e-27  4.0993143726707894e-27  4.0477576765010318e-27  3.7159012117080010e-27  3.8636330829419234e-27  3.9058272617142604e-27  3.9522511307854176e-27  3.7995369272469797e-27  3.9874010911539456e-27  3.9313900026222645e-27  3.5477627911951825e-27  4.0616115920932295e-27  3.8434494903585053e-27  4.3139752242369705e-27  3.7776095874579034e-27  3.7915930991040145e-27  3.7389719405209612e-27  4.3060342935120143e-27  4.4057174936474340e-27  3.7691953270282918e-27  3.6945715692229197e-27  4.7194046528491703e-27  3.7459509990124523e-27  4.1639671698823964e-27  3.8348773277554438e-27  3.9340283230732531e-27  2.0968397917954355e-26  -1.6648684149618332e-24  -2.6375203777037060e-25  -5.5359429297711143e-25  2.1097644593476551e-24  -1.8644897698501585e-25  -2.6351492509912451e-