<?xml version="1.0"?>
<VTKFile type="UnstructuredGrid"  version="0.1"  >
<UnstructuredGrid>
<Piece  NumberOfPoints="4555" NumberOfCells="20644">
<Points>
<DataArray  type="Float64"  NumberOfComponents="3"  format="ascii">-48.90957 -27.198109 2.029007  -47.27364675 -26.95949325 2.5342865  -47.62879325 -26.41591625 1.9835905  -47.27426425 -27.03617925 1.52171375  -45.6389585 -26.8742495 1.0144205  -45.638341 -26.7975635 2.02699325  -45.9934875 -26.2539865 1.47629725  -46.3480165 -25.6337235 1.938174  -45.99287 -26.1773005 2.48887  -45.6377235 -26.7208775 3.039566  -43.786463 -24.069338 1.847341  -43.43131649999999 -24.612915 2.398037  -44.71209325 -25.39510775 2.4434535  -43.07678749999999 -25.233178 1.93616025  -42.367112 -26.397018 2.0249795  -42.721641 -25.776755 2.48685625  -44.00241775 -26.55894775 2.53227275  -44.35694675 -25.93868475 2.9941495  -43.07617 -25.156492 2.948733  -44.35756425 -26.01537075 1.98157675  -43.431934 -24.689601 1.38546425  -43.077405 -25.309864 0.9235874999999999  -42.7222585 -25.853441 1.4742835  -44.71271075 -25.47179375 1.43088075  -44.35818175 -26.09205675 0.969004  -45.06723975 -24.85153075 1.8927575  -42.365877 -26.243646 4.050125  -42.7210235 -25.700069 3.499429  -44.00180025 -26.48226175 3.5448455  -42.3664945 -26.320332 3.03755225  -51.288929 -22.419372 1.678549  -49.43628375 -22.81066625 1.76283625  -51.0153955 -22.95270375 2.182478  -50.7438165 -23.55117425 1.76119775  -50.198704 -24.6829765 1.8438465  -49.16275025 -23.343998 2.26676525  -48.89117125 -23.9424685 1.845485  -50.47028299999999 -24.084506 2.26512675  -50.741862 -23.4860355 2.686407  -47.5836385 -23.2019605 1.8471235  -51.01735000000001 -23.0178425 1.25726875  -50.745771 -23.616313 0.8359885  -49.16470475 -23.40913675 1.341556  -50.47223750000001 -24.14964475 1.3399175  -49.70981725 -22.2773345 1.25890725  -49.43823825 -22.875805 0.837627  -48.1307055 -22.135297 0.8392655  -47.85717200000001 -22.66862875 1.3431945  -50.202613 -24.813254 -0.006572  -48.89312575 -24.00760725 0.9202757500000001  -49.16665925 -23.4742755 0.41634675  -48.89508025 -24.072746 -0.0049335  -47.5875475 -23.332238 -0.003295  -47.585593 -23.26709925 0.92191425  -47.8591265 -22.7337675 0.41798525  -50.2006585 -24.74811525 0.9186372500000001  -50.474192 -24.2147835 0.41470825  -50.194795 -24.552699 3.694265  -48.88921675 -23.87732975 2.77069425  -50.4683285 -24.01936725 3.190336  -50.1967495 -24.61783775 2.76905575  -44.972482 -21.851222 -1.8e-05  -46.27806025 -22.52659125 0.92355275  -46.55159375 -21.9932595 0.41962375  -46.28001475 -22.59173 -0.0016565  -48.5271575 -27.7786715 2.63113475  -46.89185175 -27.61674175 2.1238415  -48.14732 -28.43806075 2.12149325  -47.38507 -29.6780125 2.2139795  -46.50943925 -28.19730425 2.72596925  -47.7649075 -29.01862325 2.723621  -46.12960175 -28.8566935 2.21632775  -44.8741335 -28.0353745 2.218676  -48.144745 -28.359234 3.2332625  -47.37992 -29.520359 4.437518  -47.7623325 -28.9397965 3.83539025  -46.12702675 -28.77786675 3.328097  -47.382495 -29.59918575 3.32574875  -48.896475 -26.614527 6.066442  -48.5193165 -27.09019075 6.74589075  -48.902637 -26.303514 7.03808825  -47.265632 -26.28775 6.5506865  -45.634789 -25.960973 7.034931  -46.8884735 -26.76341375 7.23013525  -47.271794 -25.976737 7.52233275  -48.908799 -25.992501 8.0097345  -48.52547850000001 -26.77917775 7.717537  -48.142158 -27.5658545 7.4253395  -46.511315 -27.2390775 7.909584  -48.14832 -27.2548415 8.396985749999999  -45.989047 -19.10547 4.470852  -46.5184765 -19.44746925 5.56376375  -45.7352445 -19.53686175 5.00052075  -45.989047 -18.878875 5.186862  -45.989047 -18.65228 5.902872  -46.264674 -19.878861 6.0934325  -46.5184765 -19.22087425 6.27977375  -45.7352445 -19.31026675 5.71653075  -45.481442 -19.9682535 5.530189500000001  -47.047906 -19.7894685 6.6566755  -46.772279 -19.0160775 5.034095  -46.772279 -18.7894825 5.750105  -47.555511 -18.926685 5.597338  -47.3017085 -19.35807675 6.12700675  -46.772279 -18.5628875 6.466115  -44.973837 -20.831037 6.589527  -46.0108715 -20.31025275 6.62310125  -45.2276395 -20.39964525 6.05985825  -45.481442 -19.7416585 6.2461995  -49.244466 -19.525784 3.987202  -48.17680875000001 -19.85209725 4.63778325  -48.41535475000001 -20.9005115 5.46929525  -49.21384325 -19.331313 4.6713575  -49.1832205 -19.136842 5.355513  -48.146186 -19.65762625 5.32193875  -48.384732 -20.7060405 6.15345075  -47.5862435 -22.275239 6.9513885  -47.3476975 -21.22682475 6.1198765  -47.1091515 -20.1784105 5.2883645  -49.483012 -20.57419825 4.818714  -49.45238925 -20.37972725 5.5028695  -48.65390075000001 -21.94892575 6.30080725  -49.721558 -21.6226125 5.650226  -47.07852875 -19.9839395 5.97252  -48.35410925 -20.5115695 6.83760625  -47.31707475 -21.03235375 6.804032  -48.11556325 -19.46315525 6.00609425  -49.121975 -18.7479 6.723824  -49.15259775 -18.942371 6.039668499999999  -49.4217665 -20.18525625 6.187025  -46.04149425 -20.50472375 5.93894575  -46.28004025 -21.553138 6.77045775  -45.989047 -19.564035 1.50202  -45.989047 -19.564035 0.75101  -46.5488395 -20.2207595 0.50149625  -45.73490575 -20.13583175 1.1265105  -45.4807645 -20.7076285 0.7510009999999999  -45.73490575 -20.13583175 0.3755005  -46.29469825 -20.79255625 0.12598675  -47.108632 -20.877484 -0.4990275  -46.5488395 -20.2207595 -0.24951375  -45.989047 -19.564035 0  -46.80298075 -19.64896275 0.8770057499999999  -47.36277325 -20.30568725 -0.123518  -46.80298075 -19.64896275 0.12599575  -47.6169145 -19.7338905 0.2519915  -45.4807645 -20.7076285 -9e-06  -46.040557 -21.364353 -0.24952275  -45.22662325 -21.27942525 0.3754915  -50.19865 -23.719441 7.31325  -48.59639525 -23.66469525 6.8587255  -48.89190625 -23.1888355 6.31850025  -48.5954315 -23.87300975 5.95397925  -46.992213 -24.0265785 4.5947085  -46.99317675 -23.818264 5.49945475  -47.28868774999999 -23.34240425 4.9592295  -47.5851625 -22.65823 5.3237505  -47.2896515 -23.13408975 5.86397575  -46.9941405 -23.6099495 6.404201  -50.19768625 -23.9277555 6.408503749999999  -50.1967225 -24.13607 5.5037575  -48.89094249999999 -23.39715 5.413754  -48.59446775 -24.08132425 5.049233  -48.88997875 -23.6054645 4.50900775  -48.593504 -24.28963875 4.14448675  -48.889015 -23.813779 3.6042615  -47.583235 -23.074859 3.514258  -47.58419875 -22.8665445 4.41900425  -47.287724 -23.55071875 4.054483250000001  -50.19575875 -24.3443845 4.59901125  -44.971675 -21.597019 3.334251  -44.676164 -22.07287875 3.87447625  -46.27841875 -22.1276245 4.329000750000001  -45.981944 -22.81179875 3.96447975  -45.98290775 -22.60348425 4.869225999999999  -45.68643299999999 -23.2876585 4.504705  -44.380653 -22.5487385 4.4147015  -46.277455 -22.335939 3.4242545  -43.789631 -23.500458 5.495152  -44.085142 -23.02459825 4.95492675  -45.68739675 -23.079344 5.40945125  -45.390922 -23.76351825 5.04493025  -45.39188575 -23.55520375 5.949676500000001  -52.226008 -19.984272 3.012144  -51.24790375000001 -20.3498715 3.752207  -51.4806225 -19.86965 3.2559085  -51.24635275 -20.478425 2.92250975  -50.26669750000001 -20.972578 2.8328755  -50.26824850000001 -20.8440245 3.66257275  -50.50096725 -20.363803 3.16627425  -50.735237 -19.755028 3.499673  -50.50251825 -20.2352495 3.9959715  -50.2697995 -20.715471 4.49227  -51.99328925 -20.4644935 3.5084425  -51.013634 -20.9586465 3.41880825  -51.015185 -20.830093 4.2485055  -51.7605705 -20.944715 4.004741  -51.7590195 -21.0732685 3.17504375  -50.77936425 -21.5674215 3.0854095  -51.292031 -22.162265 3.3379435  -51.52630075 -21.55349 3.67134225  -51.99173825 -20.593047 2.67874525  -51.012083 -21.0872 2.589111  -51.7574685 -21.201822 2.3453465  -51.52474975 -21.6820435 2.841645  -51.29048 -22.2908185 2.50824625  -51.52319875000001 -21.810597 2.01194775  -50.77781325000001 -21.695975 2.25571225  -51.295133 -21.905158 4.997338  -51.52785175 -21.4249365 4.5010395  -50.78246625 -21.3103145 4.744804  -50.78091525000001 -21.438868 3.91510675  -51.293582 -22.0337115 4.16764075  -49.75713275 -20.1206275 4.239736  -49.9898515 -19.640406 3.7434375  -49.75558175 -20.249181 3.41003875  -46.68151 -20.16176025 1.961404  -45.734704 -20.072281 1.96007775  -46.54855875 -20.06271825 2.58137325  -47.1080705 -20.5614015 3.6607265  -47.24102175 -20.6604435 3.04075725  -46.29421575 -20.57096425 3.039431  -45.480361 -20.580527 2.4181355  -46.427167 -20.67000625 2.41946175  -47.373973 -20.7594855 2.420788  -46.80290175 -19.55447225 2.1233155  -47.6167565 -19.5449095 2.744611  -47.49536475 -20.1521975 2.5826995  -47.3624135 -20.0531555 3.20266875  -46.935853 -19.65351425 1.50334625  -47.628316 -20.2512395 1.96273025  -47.74970775 -19.6439515 2.12464175  -47.882659 -19.7429935 1.5046725  -49.776271 -19.921952 1.507325  -48.575122 -20.34071875 1.9640565  -49.64331975 -19.82291 2.12729425  -48.69651375 -19.73343075 2.125968  -48.44217075 -20.24167675 2.58402575  -48.5635625 -19.63438875 2.74593725  -49.5103685 -19.723868 2.7472635  -48.829465 -19.83247275 1.50599875  -48.3092195 -20.14263475 3.203995  -48.17626825 -20.04359275 3.82396425  -48.43061125 -19.53534675 3.3659065  -49.37741725 -19.624826 3.36723275  -46.172824 -21.17825225 2.8775195  -45.226018 -21.088773 2.87619325  -46.03987275 -21.07921025 3.49748875  -48.8916345 -24.01027225 -0.92939675  -49.96315525 -23.585877 -0.25443825  -48.65217675 -22.78289525 -1.177263  -47.58410175 -23.26976425 -0.92775825  -48.6556225 -22.845369 -0.25279975  -49.7236975 -22.3585 -0.5023044999999999  -47.580656 -23.2072905 -1.8522215  -49.9597095 -23.52340325 -1.1789015  -49.72025175 -22.29602625 -1.42676775  -48.64873100000001 -22.7204215 -2.10172625  -49.71680600000001 -22.2335525 -2.351231  -49.244782 -19.903746 -0.998037  -48.176707 -20.390615 -0.74853225  -48.412719 -21.55551825 -1.42512925  -48.41616475 -21.617992 -0.5006659999999999  -47.344644 -22.04238725 -1.1756245  -47.34808975 -22.104861 -0.25116125  -49.48423975 -21.131123 -0.7501707499999999  -49.480794 -21.06864925 -1.674634  -46.276569 -22.52925625 -0.92611975  -45.072504 -23.96796225 6.609620749999999  -43.78563575 -23.22864475 6.378516749999999  -43.435499 -23.95219825 6.
[...]
<PointData  Scalars="c_HbO2"> 
<DataArray  type="Float64"  Name="c_HbO2"  format="ascii">2.2069013179551145e-17  2.1107204402230138e-17  2.1038838468420329e-17  2.1104614105990618e-17  2.0272155631341170e-17  2.0315362749023398e-17  2.0249260532357013e-17  2.0081434039984913e-17  2.0209310780967958e-17  2.0268445483554633e-17  2.2046811876873917e-17  2.2029391501073003e-17  2.0754807216967679e-17  2.1905739906366849e-17  2.2061172822883988e-17  2.2123246851025078e-17  2.0961132614354632e-17  2.0794622586403979e-17  2.2021308257643193e-17  2.0893247577246868e-17  2.2068271264490448e-17  2.2008086697828954e-17  2.2092554742823285e-17  2.0574147982158755e-17  2.0820835054179903e-17  2.0442157299768076e-17  2.2082506858700850e-17  2.2155970250094697e-17  2.0882567619632220e-17  2.2068253005332630e-17  2.1649183989921943e-17  2.0297548758194073e-17  2.1723835545114535e-17  2.2012039798274580e-17  2.2003958723654978e-17  2.0413138460914344e-17  2.0470855711238200e-17  2.1964601838335185e-17  2.1881133125451007e-17  1.9855950567285684e-17  2.1722068114394273e-17  2.1873827593659446e-17  2.0369632726183256e-17  2.1975929463728540e-17  2.0225084425944657e-17  2.0277125021724616e-17  1.9886167654309517e-17  1.9987411960839061e-17  2.1972761587670528e-17  2.0582567910278908e-17  2.0414033216040061e-17  2.0554273860049575e-17  1.9869825831653553e-17  2.0104521798428170e-17  2.0018827006958737e-17  2.1973081464399186e-17  2.1958210520823502e-17  2.1980429501630410e-17  2.0568368659338517e-17  2.1934462847513019e-17  2.1992034024657986e-17  2.1557489444923310e-17  2.0024714888437930e-17  2.0015053013720430e-17  2.0113244974739256e-17  2.2076629332183686e-17  2.1122116384004292e-17  2.2187332826017377e-17  2.2059395640007995e-17  2.1178948290686593e-17  2.2073690371322071e-17  2.1297423068108394e-17  2.0499683882607018e-17  2.2104272591531622e-17  2.2088661578832465e-17  2.1996568171986828e-17  2.1332884083674815e-17  2.2078011721882539e-17  2.2074535141014400e-17  2.2066286676955148e-17  2.2030878496975644e-17  2.1116471132590201e-17  2.0265413222469235e-17  2.1163730997897001e-17  2.1042373832159651e-17  2.2044271447335772e-17  2.2079545302348779e-17  2.2097069224332777e-17  2.1333035856744835e-17  2.1956187162189379e-17  2.0000000000000001e-17  1.9891160675599577e-17  2.0440132306837281e-17  2.0000000000000001e-17  2.0000000000000001e-17  2.0033091545586970e-17  1.9487631564203482e-17  2.0402411247984922e-17  2.0935760793176625e-17  1.9988305681893030e-17  2.0000000000000001e-17  2.0000000000000001e-17  2.0000000000000001e-17  2.0219106018686652e-17  2.0000000000000001e-17  2.1564701143984891e-17  2.0126354385512724e-17  2.1775161264822920e-17  2.1124518274908444e-17  2.0000000000000001e-17  1.9958195121043896e-17  2.0037092130639616e-17  2.0000000000000001e-17  2.0000000000000001e-17  1.9967552612679155e-17  1.9983924713824109e-17  1.9880505568786235e-17  2.0028131041519799e-17  1.9976943111431064e-17  2.0027863927446592e-17  2.0050418303703889e-17  2.0084251004463780e-17  2.0201963644001775e-17  2.0001585704679931e-17  2.0021668299222062e-17  2.0207873424357026e-17  1.9915196001445396e-17  2.0000000000000001e-17  2.0000000000000001e-17  2.0012867619083301e-17  2.0242839059597775e-17  2.0070911944153027e-17  2.0000000000000001e-17  2.0000000000000001e-17  1.9792132038736877e-17  2.0423682010924608e-17  2.0932847409561301e-17  2.0424891682369437e-17  1.9932332044275416e-17  1.9983350241555154e-17  1.9466097340113427e-17  2.0000000000000001e-17  2.0000000000000001e-17  2.0136866509426334e-17  2.0000000000000001e-17  2.0000000000000001e-17  2.1141048380880278e-17  2.0114669624943995e-17  2.1634689851700087e-17  2.1965744448683388e-17  2.0650205360962231e-17  2.0561913514728305e-17  2.0716793945295529e-17  1.9912721953869595e-17  2.0079459199756167e-17  2.0072572177619305e-17  1.9876302812281694e-17  1.9995839280225646e-17  1.9932705766283038e-17  2.1949748538957330e-17  2.1923638432669936e-17  2.0566215020671932e-17  2.0635334027790474e-17  2.0542705792389270e-17  2.0731369307453128e-17  2.0590414197769130e-17  1.9868329930207742e-17  2.0119036165932519e-17  2.0029498738506115e-17  2.1939847517260121e-17  2.1607919441695755e-17  2.1809113789821596e-17  1.9977955134968830e-17  2.0219736709858240e-17  2.0168478082135005e-17  2.0269292273452018e-17  2.1892785886669298e-17  2.0004393185379367e-17  2.2049126380081400e-17  2.2091880761506644e-17  2.0227210053025287e-17  2.0375142730800345e-17  2.0373825086091577e-17  2.0000000000000001e-17  2.0154718564514139e-17  2.0000000000000001e-17  1.9751544794661429e-17  1.9936730017992026e-17  2.0167930360871188e-17  1.9936263043829521e-17  2.0000000000000001e-17  1.9973779630011942e-17  1.9936555821922976e-17  2.0140978845501191e-17  2.0284137835423069e-17  2.0422379525633101e-17  2.1103222504938749e-17  2.1009522571415881e-17  2.0538899636559317e-17  2.1633386396323609e-17  2.1386151971218191e-17  2.0470660338907012e-17  2.0419870914109007e-17  2.1124516073948311e-17  2.1438013217708185e-17  2.1600960057041656e-17  2.1277571795992330e-17  2.0674628150948378e-17  2.1676663733235228e-17  2.1411380428317924e-17  2.0694117446089897e-17  2.0494344779483818e-17  2.1640385676111673e-17  1.9933566253735074e-17  2.0000000000000001e-17  2.0083821500273869e-17  1.9860675905222865e-17  2.0419965590631420e-17  1.9882098373374982e-17  1.9996119721118448e-17  2.0117888583831472e-17  1.9939972579812323e-17  2.0965743055346498e-17  2.0136919260766457e-17  1.9947519795356039e-17  2.0000000000000001e-17  2.0000000000000001e-17  2.0144515480560397e-17  2.0086007213232416e-17  2.0000000000000001e-17  2.0004671022767734e-17  2.0000000000000001e-17  2.0000000000000001e-17  2.0000000000000001e-17  1.9991388195128171e-17  2.0000000000000001e-17  2.0000000000000001e-17  2.0034408199270419e-17  2.0000000000000001e-17  2.0000000000000001e-17  2.0000000000000001e-17  1.9927961722584472e-17  1.9945342169327683e-17  2.0000000000000001e-17  2.0000000000000001e-17  2.0218655140798261e-17  2.1617828665391793e-17  2.0134195101141909e-17  2.0551029217790424e-17  2.1355148932879108e-17  2.0092642455410478e-17  2.0093824254630998e-17  2.0098056366366429e-17  2.0125309492556345e-17  1.9883648266887362e-17  2.1158842773139428e-17  2.0262144067295468e-17  2.0103829737229536e-17  2.0205183604734069e-17  2.0000000000000001e-17  1.9920532906338390e-17  2.0025603345903938e-17  2.0058805323351625e-17  2.0035731761833918e-17  2.0103688111061257e-17  2.0036024536963947e-17  2.0030420223221909e-17  2.0007486726635543e-17  2.0515401748548913e-17  2.2044190844909723e-17  2.2030542612736107e-17  2.2014973456922918e-17  2.1035402773775377e-17  2.1011676371506530e-17  2.0195348952210971e-17  2.0206539157978550e-17  2.0080740385598027e-17  2.0756664009170914e-17  2.0434138525666285e-17  2.0000000000000001e-17  2.0000000000000001e-17  2.0448456286603761e-17  1.9474513267721932e-17  2.0000000000000001e-17  1.9934570100254642e-17  2.0000000000000001e-17  2.0000000000000001e-17  2.0000000000000001e-17  2.0108466153081292e-17  2.0000000000000001e-17  2.0738291502189388e-17  2.0000000000000001e-17  2.0460846838415733e-17  2.0973772758416100e-17  2.0305543954926054e-17  2.0000000000000001e-17  2.1855595731655736e-17  2.1099710241093824e-17  2.1341495965983371e-17  2.1604220429717878e-17  2.0594842418044799e-17  2.1177592705199607e-17  2.0297483486369648e-17  2.0821816013927511e-17  1.9774797566980785e-17  2.1610397384397464e-17  2.0254227274923910e-17  2.1532695719006462e-17  1.9883430968656946e-17  2.1507166929086460e-17  1.9987799220468066e-17  1.9997079773605700e-17  2.1634845445922824e-17  2.0250036931002103e-17  2.1572103407538846e-17  2.0816298841555341e-17  2.0944903781813595e-17  2.0145397655227372e-17  2.0142577154453033e-17  2.0930798899000695e-17  2.2039060900138237e-17  2.0810401709726542e-17  2.0127181149544667e-17  2.1693007686293230e-17  2.1732948560241056e-17  2.0936710232235281e-17  2.1993297362660477e-17  2.1584030271241307e-17  2.1345418084001824e-17  2.1586671014232819e-17  2.0035829019480740e-17  2.0739740704358066e-17  2.1785770629883560e-17  2.1957500793983164e-17  2.0101325663712586e-17  2.0054199843030447e-17  2.1742019994996502e-17  2.0139521914562014e-17  2.0037691220726069e-17  2.1816580544684967e-17  2.0216903632220387e-17  2.1738202131090409e-17  2.1890557792307300e-17  2.0106827315910861e-17  2.0291350521515186e-17  2.2027584667351341e-17  2.1973209881898230e-17  2.1690084071674765e-17  2.0689130522912881e-17  2.0598158794110310e-17  2.0862803265964599e-17  2.0268683536618987e-17  1.9923566707709051e-17  1.9977204262558920e-17  2.0120815612890968e-17  1.9936271152311215e-17  1.9934277836212987e-17  2.0161525851287253e-17  2.0042417248680925e-17  1.9988063064285896e-17  2.0857938192658911e-17  2.0259558451444134e-17  2.0264967865394980e-17  2.0857582779744199e-17  2.1023088174711635e-17  2.2055209921346788e-17  2.1986624049871167e-17  2.1890090815341464e-17  2.0921591485358315e-17  2.1699498873391652e-17  2.1163260856795357e-17  2.1160353603164044e-17  2.2021848888094254e-17  2.0733310481040384e-17  2.2040058640281156e-17  2.0811657137916259e-17  2.2007291006573025e-17  2.1996871994853948e-17  2.2061007544713202e-17  2.0736150107522227e-17  2.2018548682802126e-17  2.0903357644387603e-17  2.1041282137266295e-17  2.0044496207743411e-17  2.0056775094816037e-17  2.2046928752773105e-17  2.1876579555252834e-17  2.1974304216325680e-17  2.0000000000000001e-17  2.0000000000000001e-17  2.0189735173231796e-17  1.9778150123113289e-17  1.9944734309683326e-17  1.9945790067291455e-17  2.0159010897216285e-17  1.9983440583143493e-17  2.0000000000000001e-17  2.0121193788087824e-17  2.0253805252924440e-17  2.0423316133389991e-17  2.1113256767089777e-17  2.0996053130868377e-17  2.1623162340913550e-17  2.1385013912015290e-17  2.0593569591472856e-17  2.0464606206048294e-17  2.1441843712709190e-17  2.0417588046268336e-17  2.1114808673812966e-17  2.1289757532713803e-17  2.0666014170538459e-17  2.1602587352740819e-17  2.1413674247566954e-17  2.0538569009287787e-17  2.1591881936141170e-17  2.0000000000000001e-17  2.0088705362870888e-17  2.0718497997451305e-17  1.9922848303530092e-17  2.0072738164460800e-17  2.0040349590800422e-17  2.0626641040704308e-17  2.0649162656302197e-17  2.0709430543377735e-17  2.0067456319589729e-17  1.9941680652469304e-17  1.9991031823218749e-17  2.1748947304221404e-17  2.0262892073998023e-17  2.0187565876681035e-17  2.0302878918667103e-17  2.1885505164776621e-17  2.0229845435152418e-17  2.2089522590214973e-17  2.0378619036784265e-17  2.0380670972803578e-17  2.0000000000000001e-17  2.0000000000000001e-17  2.0158185810879080e-17  2.0000000000000001e-17  2.0043996857231373e-17  2.0000000000000001e-17  2.0000000000000001e-17  2.0525176238286528e-17  2.0000000000000001e-17  2.0382957975225200e-17  2.0823100716888590e-17  2.0139132498791901e-17  2.0000000000000001e-17  2.0433360800104748e-17  2.2015692008800594e-17  1.9995698516435859e-17  2.0000000000000001e-17  2.0000000000000001e-17  2.0000000000000001e-17  2.0000000000000001e-17  2.1045081087351123e-17  2.1028770605802684e-17  2.0055038437085678e-17  2.0123825102247595e-17  2.0061941918902058e-17  2.0030566923054327e-17  2.1978634201827363e-17  2.0586987133243178e-17  2.0482191136425408e-17  2.0574874804114733e-17  2.2004739184640055e-17  2.0789545239185856e-17  2.0059446154280410e-17  2.0082003480076904e-17  2.0061358070593316e-17  2.0023612127412126e-17  2.0831371679939538e-17  2.1038972650510944e-17  2.0132980947947337e-17  2.0438239434268570e-17  2.2038500450053940e-17  2.0523093627806280e-17  2.0447183671805876e-17  2.0574020637319518e-17  2.2014477117794664e-17  2.1983186388984307e-17  2.0566065800799591e-17  2.0106442612967366e-17  2.0089444978954986e-17  2.0084500514523350e-17  2.0028241259583771e-17  2.0027867820692700e-17  2.0045966565441024e-17  2.0182726246796397e-17  2.0150444324296830e-17  1.9976486226941597e-17  1.9921965698394955e-17  2.0185699186705369e-17  2.0116612899079229e-17  2.0169973160288378e-17  2.0053464466372997e-17  2.0026577930989831e-17  2.0000000000000001e-17  2.0291353286181908e-17  2.0000000000000001e-17  2.0000000000000001e-17  2.0337579620404834e-17  2.0988157004240875e-17  2.0045471876383224e-17  2.0011678167469298e-17  2.0724051294117365e-17  2.0000000000000001e-17  2.0000000000000001e-17  2.0043242491328459e-17  2.0171804999564559e-17  2.0000000000000001e-17  2.0000000000000001e-17  2.0000000000000001e-17  2.0060296127946678e-17  2.0236122619448929e-17  2.0000000000000001e-17  2.1648634141274144e-17  2.2057030270994481e-17  2.0219716959320581e-17  2.2005304010694657e-17  2.0693704545835880e-17  2.2183455523411039e-17  2.2048472716805946e-17  2.2064150466120822e-17  2.0969760324227766e-17  2.2037699981542190e-17  2.2043500306410371e-17  2.0839859782373088e-17  2.2093951362973614e-17  2.0807253401870799e-17  2.1012681725859380e-17  2.0899012985009705e-17  2.0196818838851733e-17  2.0060690073926114e-17  2.2042293373905004e-17  2.2069061636100870e-17  2.2053672305087068e-17  2.0251697374109517e-17  2.1048161499631532e-17  2.1102454054161305e-17  2.1037267684503960e-17  2.0307526522038377e-17  2.0197991229378247e-17  2.0280283673118354e-17  2.0693894723742641e-17  2.0750348896271153e-17  2.0844656929509262e-17  2.0183207802816699e-17  2.0046187445712031e-17  2.0069827527535685e-17  2.0064670086937125e-17  1.9902333166762197e-17  1.9976486602394694e-17  2.0008562606348456e-17  2.0256153319287891e-17  2.0080620740255364e-17  1.9954577231054463e-17  1.9997532133365470e-17  2.0036150271287969e-17  2.0170093274038574e-17  2.0129283204044925e-17  2.1604601086732367e-17  1.9903650955624162e-17  1.9988904958009189e-17  2.1547562060695963e-17  2.0192841261629222e-17  2.0112917157391475e-17  2.1565374861913158e-17  1.9872207747765260e-17  2.0256179948917308e-17  1.9863356562276956e-17  2.0333637326160239e-17  2.0117845952893558e-17  2.0141582140835535e-17  2.0022977398612358e-17  2.0000000000000001e-17  2.0000000000000001e-17  1.9985519992803421e-17  2.0000000000000001e-17  2.0000000000000001e-17  1.9944313680452023e-17  2.0067734058332398e-17  2.0729591337796468e-17  2.0365329282291666e-17  2.1699862672001830e-17  2.1976745277633823e-17  2.1120014974908192e-17  2.0361656752278709e-17  2.0313677529819344e-17  2.0407937454008605e-17  2.0501438127549115e-17  2.1203036638427520e-17  2.0543826885531556e-17  2.1308951505841719e-17  2.0989830890505574e-17  2.0909871236161142e-17  2.2091349258529293e-17  2.2060417133487757e-17  2.1058380038068337e-17  2.0953603691489637e-17  2.1001863874618486e-17  2.2214193526214695e-17  2.2078367578264802e-17  2.2083259810077772e-17  2.1274756545639604e-17  2.2060450257966693e-17  2.2077066272162885e-17  2.1189536777427649e-17  2.2089113360735792e-17  2.1176363015931347e-17  2.1298261712177733e-17  2.1276568811951117e-17  2.1376212399482061e-17  2.0520134862270173e-17  2.0571240046428214e-17  2.0388711753464161e-17  2.2077155769874262e-17  2.2066369954793060e-17  2.2067459952343053e-17  2.0963149290605817e-17  2.0388634936463805e-17  2.0000000000000001e-17  2.0164856700538072e-17  2.0080409999742349e-17  2.0000000000000001e-17  2.0000000000000001e-17  2.0376114115813051e-17  2.0000000000000001e-17  2.0000000000000001e-17  2.0000000000000001e-17  2.0000000000000001e-17  2.0368888304695992e-17  2.0341507587163159e-17  2.0000000000000001e-17  2.0000000000000001e-17  2.0846123001107205e-17  1.9804668596589357e-17  2.0719276737488619e-17  2.0000000000000001e-17  2.0041784201474477e-17  2.0000000000000001e-17  2.0791274980127552e-17  2.0068186972208881e-17  2.0146951152027878e-17  2.0078786534952232e-17  2.0917394432629901e-17  1.9966005407624779e-17  1.9974305065537827e-17  2.0040743192986954e-17  2.0767394488468351e-17  2.1517381055611277e-17  1.9844915534494705e-17  2.1394929801310908e-17  2.0039628261571492e-17  2.0084447994585100e-17  2.0238660707295998e-17  2.0402402076462997e-17  2.0043687394710069e-17  1.9967015256365720e-17  1.9982525675604744e-17  2.0082425295162035e-17  2.0024662409216739e-17  2.0039343315133443e-17  2.0197841114852736e-17  2.0237404285418560e-17  2.2021631438008437e-17  2.2064257281262043e-17  2.0703104190139532e-17  2.2023400672709228e-17  2.2015693022640747e-17  2.0566067992564758e-17  2.0808123418315641e-17  2.2140067753902806e-17  2.2169231553427999e-17  2.1908975751329801e-17  2.2117381988849706e-17  2.0880429095315291e-17  2.2092685171809405e-17  2.0312568414171128e-17  2.0000000000000001e-17  2.0000000000000001e-17  2.0000000000000001e-17  2.0803644639201797e-17  2.0158013025345354e-17  2.0854119911584494e-17  2.1690789987115156e-17  2.1973809652652329e-17  2.1010922901170211e-17  2.1597603273396581e-17  2.2097701578682553e-17  2.2076719597052954e-17  2.1158732966228053e-17  2.1201528987465360e-17  2.2134149788193775e-17  2.1318733865496112e-17  2.0394646889434464e-17  2.1970757753344663e-17  2.0371209405564237e-17  2.0533486200611855e-17  2.0999913517157044e-17  2.1059029344224323e-17  2.0730436950590644e-17  2.2047871180092906e-17  2.1885892288022391e-17  2.0079345748233067e-17  2.0116464794473652e-17  2.1745178632126849e-17  2.0082940817260100e-17  2.0073339104255192e-17  2.1828285731215812e-17  2.1893525749352625e-17  2.1731065389318153e-17  2.0228239021646968e-17  2.0114770165819844e-17  2.0299797400229410e-17  2.1971397937437008e-17  2.2036839641521521e-17  2.0000000000000001e-17  2.0000000000000001e-17  2.0046907004215638e-17  2.0000000000000001e-17  2.0000000000000001e-17  2.0000000000000001e-17  2.0515375915490771e-17  2.0823978779705781e-17  2.1710634980245390e-17  2.2061860833251571e-17  2.0360646405883633e-17  2.1982398122036843e-17  2.0084488372394170e-17  2.0000000000000001e-17  2.0000000000000001e-17  2.0942350866870106e-17  2.2059664823673330e-17  2.1968743540731125e-17  2.1558861972140533e-17  2.0102911348756661e-17  2.2105482988786709e-17  2.1587258523791612e-17  2.1550246933567756e-17  2.1569712702490648e-17  2.1043898140851876e-17  2.1120197454237714e-17  2.1049449082636632e-17  2.1038449717371840e-17  2.1089224854668142e-17  2.1220337750727825e-17  2.2072391714579993e-17  2.2096774822844082e-17  2.1635922933211662e-17  2.1554330139793798e-17  2.2087167100442913e-17  2.2096585187027383e-17  2.1493478531178713e-17  2.2147569459868685e-17  2.2108293741627100e-17  2.1557469437993131e-17  2.2072544225491921e-17  2.2083560965257349e-17  2.1551681318892279e-17  2.2147305940092235e-17  2.2102953328624878e-17  2.2124869142958301e-17  2.1679511608628367e-17  2.1697315342514949e-17  2.2084101986371824e-17  2.2086692080454487e-17  2.1979237385032389e-17  2.2067385741398500e-17  2.1428791372559488e-17  2.1362146854167541e-17  2.1337940312363647e-17  2.2083661733669615e-17  2.1810298022009148e-17  2.1824717860934458e-17  2.2187387560547834e-17  2.2155605314603983e-17  2.1860137705975698e-17  2.1865746301411224e-17  2.1658611939551962e-17  2.1686278590540133e-17  2.1714206601523100e-17  2.2173991948986137e-17  2.2133040945383777e-17  2.1874951861839000e-17  2.2142000240114350e-17  2.2140081619834982e-17  2.1909223282865744e-17  2.2149802738171355e-17  2.2143465933558992e-17  2.2129282197966596e-17  2.2172907309819295e-17  2.1894494478020385e-17  2.2065490315682011e-17  2.2159910763819859e-17  2.1946858735212078e-17  2.1974713513135347e-17  2.1884189181568007e-17  2.1760845641818638e-17  2.1734031018087259e-17  2.1776612721346151e-17  2.2060529322393074e-17  2.2114447417728101e-17  2.2125022238506730e-17  2.1848163498047097e-17  2.1831396106963124e-17  2.1808297033176613e-17  2.1959222264100839e-17  2.1961257395194047e-17  2.1963987409271804e-17  2.1827698920643069e-17  2.1881175531711135e-17  2.1871049874730611e-17  2.1906245984088898e-17  2.1907096708866707e-17  2.1940446605941367e-17  2.2207611540919684e-17  2.2159314652421281e-17  2.2011407151101506e-17  2.1965572137074617e-17  2.2164232001329521e-17  2.2022007782446329e-17  2.2021913500470066e-17  2.2111025400023927e-17  2.2128695373831041e-17  2.2029693113306617e-17  2.1976683591212790e-17  2.1917833716858455e-17  2.1889349052814