<?xml version="1.0"?>
<VTKFile type="UnstructuredGrid"  version="0.1"  >
<UnstructuredGrid>
<Piece  NumberOfPoints="5132" NumberOfCells="22171">
<Points>
<DataArray  type="Float64"  NumberOfComponents="3"  format="ascii">-30.883759 -5.540195 -46.384261  -27.5935665 -4.6031185 -44.9963395  -28.283989 -2.96158 -44.7082705  -28.9891465 -4.698823 -44.114644  -30.1786015 -3.802952 -46.9778875  -29.488179 -5.4444905 -47.2659565  -29.473444 -2.065709 -47.571514  -28.7830215 -3.7072475 -47.859583  -28.092599 -5.348786 -48.147652  -27.094534 -3.857451 -41.845027  -34.883615 -2.546811 -43.733822  -32.3891285 -3.2972205 -41.8038555  -33.0450485 -1.846558 -41.39152  -33.701049 -3.3269135 -40.7460045  -32.518483 -4.107016 -37.758187  -31.2065625 -4.077323 -38.816038  -31.8624825 -2.6266605 -38.4037025  -31.206482 -1.146305 -39.049218  -30.550562 -2.5969675 -39.4615535  -29.894642 -4.04763 -39.873889  -33.064466 -4.9063235 -41.092735  -34.247032 -4.126221 -44.0805525  -33.610449 -5.705631 -44.427283  -31.7525455 -4.8766305 -42.150586  -41.059 -11.122607 -36.420409  -39.252016 -11.37415475 -36.02388675  -40.18054025 -12.01112325 -37.06426399999999  -40.470527 -11.25262175 -37.0053885  -39.882054 -11.3826365 -37.590368  -38.663543 -11.5041695 -36.60886625  -39.59206725 -12.141138 -37.6492435  -39.3020805 -12.8996395 -37.708119  -38.37355625 -12.262671 -36.66774175  -37.445032 -11.6257025 -35.6273645  -40.76901325 -11.8811085 -36.47928450000001  -40.4790265 -12.63961 -36.53816  -38.96202925 -12.13265625 -36.08276225  -39.8905535 -12.76962475 -37.1231395  -39.840489 -11.24414 -35.43890725  -39.55050225 -12.0026415 -35.49778275  -38.621978 -11.365673 -34.4574055  -38.033505 -11.49568775 -35.042385  -39.899053 -14.156613 -36.655911  -38.6720425 -12.89115775 -36.14163775  -38.97052875 -13.5196445 -35.61553375  -39.2605155 -12.761143 -35.55665825  -37.74351825 -12.25418925 -35.1012605  -38.33199125 -12.1241745 -34.51628100000001  -38.0420045 -12.882676 -34.57515650000001  -39.60056675 -13.52812625 -37.182015  -40.18903975000001 -13.3981115 -36.5970355  -38.705108 -11.642666 -38.760327  -38.07507 -11.63418425 -37.19384574999999  -39.00359425000001 -12.27115275 -38.234223  -39.293581 -11.51265125 -38.1753475  -36.184956 -11.608739 -32.494402  -36.814994 -11.61722075 -34.06088325  -37.11348025 -12.2457075 -33.53477925  -37.403467 -11.487206 -33.47590375  -42.147675 -13.405063 -34.349349  -40.8926335 -12.2593685 -33.83865775  -40.65699524999999 -12.955982 -33.88561224999999  -41.87550625 -12.834449 -34.867114  -41.60333749999999 -12.263835 -35.384879  -40.62046475 -11.6887545 -34.35642275  -40.3848265 -12.385368 -34.40337725  -39.1663155 -12.506901 -33.4218755  -39.40195375 -11.8102875 -33.374921  -39.637592 -11.113674 -33.3279665  -40.348296 -11.1181405 -34.87418775  -40.07612725 -10.5475265 -35.39195275  -39.36542325 -10.54306 -33.8457315  -39.129785 -11.2396735 -33.892686  -38.85761625 -10.6690595 -34.41045099999999  -39.0932545 -9.972446000000001 -34.3634965  -40.11265775 -11.814754 -34.92114225  -38.89414675 -11.936287 -33.9396405  -41.33116875 -11.693221 -35.902644  -37.127509 -8.822285000000001 -32.306584  -38.3825505 -9.9679795 -32.81727525  -36.89187075 -9.518898500000001 -32.3535385  -37.8747435 -10.093979 -33.38199475  -38.14691225 -10.664593 -32.86422975  -37.63910525 -10.7905925 -33.42894925  -36.6562325 -10.215512 -32.400493  -38.11038175 -9.397365500000001 -33.33504025  -37.911274 -11.3612065 -32.91118425000001  -36.42059425 -10.9121255 -32.4474475  -37.67563575 -12.05782 -32.95813875  -43.259332 -10.443417 -33.993606  -41.72637625 -10.038134 -33.5718505  -41.448462 -10.7785455 -33.66078625  -42.709249 -10.6132145 -34.60030675  -42.159166 -10.783012 -35.2070075  -41.17629325 -10.2079315 -34.17855125  -40.898379 -10.948343 -34.267487  -39.91550625 -10.3732625 -33.23903075  -40.1934205 -9.632851 -33.150095  -42.98141775 -11.1838285 -34.08254175  -41.17054775 -11.518957 -33.749722  -42.43133475 -11.353626 -34.6892425  -42.7035035 -11.92424 -34.17147749999999  -42.1534205 -12.0940375 -34.77817825  -41.88125175 -11.5234235 -35.29594325  -42.42558925 -12.6646515 -34.26041325  -40.62621025 -10.377729 -34.785252  -39.6433375 -9.8026485 -33.75679574999999  -41.609083 -10.9528095 -35.81370825  -38.66046475 -9.227568000000002 -32.7283395  -42.1239495 -10.49829525 -32.94182175  -41.84603525 -11.23870675 -33.0307575  -40.3130795 -10.83342375 -32.609002  -40.03516525 -11.57383525 -32.69793775  -40.4327385 -12.0339965 -32.067909  -40.71065275 -11.293585 -31.97897325  -40.988567 -10.5531735 -31.8900375  -40.59099375 -10.09301225 -32.52006625  -41.568121 -11.97911825 -33.11969325  -41.29020675 -12.71952975 -33.208629  -38.717802 -10.66293 -29.786469  -38.32022875 -10.20276875 -30.41649775  -39.45561125 -10.1478905 -31.468282  -39.17769699999999 -10.888302 -31.55721775  -38.78012375 -10.42814075 -32.1872465  -39.058038 -9.68772925 -32.09831075  -37.9226555 -9.7426075 -31.0465265  -39.8531845 -10.60805175 -30.83825325  -39.57527025 -11.34846325 -30.927189  -37.52508225 -9.28244625 -31.67655525  -39.799527 -12.27044875 -32.74489225  -38.0845905 -10.89938225 -30.46345225  -37.451379 -11.1358345 -31.1404355  -37.68701725 -10.439221 -31.093481  -38.5444855 -11.12475425 -32.234201  -38.94205875 -11.5849155 -31.60417225  -38.30884725 -11.82136775 -32.2811555  -37.289444 -9.979059750000001 -31.72350975  -37.05380575 -10.67567325 -31.77046425  -36.8181675 -11.37228675 -31.81741875  -42.160798 -8.135351 -35.94834  -41.59944775 -8.23657925 -36.54582925  -40.3411255 -8.40831275 -35.63539025  -41.32399825 -8.983393250000001 -36.6638465  -40.4871985 -9.831435500000001 -37.37935299999999  -39.77977525 -8.509541 -36.2328795  -40.762648 -9.084621500000001 -37.26133575  -39.50432575 -9.256355000000001 -36.35089675  -38.521453 -8.681274500000001 -35.3224405  -41.0380975 -8.3378075 -37.1433185  -41.8853485 -8.882165000000001 -36.06635725  -41.609899 -9.628979000000001 -36.1843745  -40.065676 -9.155126750000001 -35.7534075  -41.04854874999999 -9.730207250000001 -36.78186375  -40.90247575 -8.3070845 -35.03790100000001  -40.62702625 -9.053898500000001 -35.15591825  -39.6441535 -8.478818 -34.127462  -39.08280325 -8.580046250000001 -34.72495125  -39.7902265 -9.901940750000001 -35.87142475  -40.35157675 -9.800712499999999 -35.2739355  -38.80735375 -9.326860250000001 -34.8429685  -39.368704 -9.225632000000001 -34.24547925  -40.77309925 -10.47702125 -36.89988099999999  -41.3344495 -10.375793 -36.30239175  -39.915397 -8.540264000000001 -38.338297  -40.47674725 -8.43903575 -37.74080775  -39.218425 -8.610769250000001 -36.83036875  -40.20129774999999 -9.185849750000001 -37.858825  -37.82448100000001 -8.751779750000001 -33.81451225  -38.38583125 -8.650551500000001 -33.217023  -40.66898725 -7.7286085 -35.4305655  -39.410665 -7.900342 -34.5201265  -38.84931475 -8.00157025 -35.11761575  -39.1771765 -7.321866 -34.912791  -40.107637 -7.82983675 -36.02805475  -38.9849365 -8.03229325 -37.22303325  -39.54628675 -7.931065 -36.625544  -38.61582625 -7.42309425 -35.51028025  -38.2879645 -8.1027985 -35.715105  -38.054476 -7.5243225 -36.1077695  -38.15234275 -8.0720755 -33.6096875  -36.8940205 -8.243809000000001 -32.6992485  -37.91885425 -7.4935995 -34.002352  -37.5909925 -8.173303750000001 -34.20717675  -36.660532 -7.665333 -33.09191300000001  -36.193555 -6.508381 -33.877242  -37.68536575 -6.9151235 -34.3950165  -36.4270435 -7.086857 -33.4845775  -37.35750400000001 -7.59482775 -34.59984125  -37.1240155 -7.01635175 -34.99250575000001  -39.54003025 -10.6824005 -35.93410274999999  -38.5571575 -10.10732 -34.9056465  -38.0210605 -10.242194 -35.4477965  -38.27125675 -9.461734250000001 -35.3851185  -39.2541295 -10.03681475 -36.41357475  -38.682328 -8.745643250000001 -37.37251875  -38.96822874999999 -9.391229000000001 -36.89304675  -37.73515974999999 -9.596608250000001 -35.9272685  -37.985356 -8.816148500000001 -35.8645905  -37.449259 -8.951022500000001 -36.4067405  -36.59141200000001 -8.957159000000001 -32.848734  -37.57428475 -9.532239500000001 -33.87719025  -37.288384 -8.886653750000001 -34.35666225  -37.03818775 -9.667113500000001 -34.41934025  -36.055315 -9.092033000000001 -33.390884  -34.983121 -9.361781000000001 -34.475184  -35.519218 -9.226907000000001 -33.933034  -36.752287 -9.021527750000001 -34.89881225  -36.50209074999999 -9.801987500000001 -34.96149025  -36.21619 -9.156401750000001 -35.44096225  -37.7518675 -8.2376725 -36.257255  -36.3579235 -8.378683000000001 -33.2413985  -37.0548955 -8.30817775 -34.74932675  -35.8218265 -8.513557 -33.7835485  -35.588338 -7.935081 -34.176213  -36.12443500000001 -7.800207 -33.634063  -35.8909465 -7.221731 -34.02672750000001  -36.821407 -7.72970175 -35.14199125  -36.5187985 -8.44305175 -35.29147675  -35.2857295 -8.648431 -34.3256985  -36.239811 -5.769841 -42.301123  -32.4085845 -6.4013855 -41.4215255  -34.2669635 -7.334079 -43.6380655  -34.92513 -5.737736 -43.364203  -35.5816445 -7.366184000000001 -42.5749855  -33.7232655 -6.4334905 -40.3584455  -34.923478 -8.962527 -42.848848  -33.065099 -8.029833499999999 -40.63230799999999  -31.20672 -7.09714 -38.415768  -29.492242 -8.761414 -46.791509  -26.1745275 -7.710706 -45.4194625  -26.906192 -6.099207 -45.23732800000001  -27.6060135 -7.805521000000001 -44.5592565  -28.7924205 -7.055099999999999 -47.4695805  -28.060756 -8.666599 -47.651715  -27.3609345 -6.960284999999999 -48.3297865  -26.62927 -8.571783999999999 -48.511921  -25.719785 -6.849628 -42.327004  -32.229362 -2.281585 -45.739071  -29.661948 -3.069518 -43.79204900000001  -30.851403 -2.173647 -46.6552925  -31.5565605 -3.91089 -46.061666  -43.271254 -5.266344 -35.15486  -41.58821675 -5.51361275 -34.75335525  -41.73324375 -4.894125750000001 -34.68740825  -42.1365375 -5.44579325 -34.12820075  -41.001821 -5.625242500000001 -33.1015415  -40.45350025 -5.693062 -33.726696  -40.59852725 -5.073575 -33.660749  -40.1952335 -4.5219075 -34.2199565  -40.0502065 -5.141394500000001 -34.2859035  -39.9051795 -5.7608815 -34.3518505  -42.72293325 -5.3341635 -35.7800
[...]
<PointData  Scalars="c_HbO2"> 
<DataArray  type="Float64"  Name="c_HbO2"  format="ascii">2.2211362858677667e-17  2.2215700022262898e-17  2.2188002915514793e-17  2.2183651841387148e-17  2.2213515930217369e-17  2.2204106244296556e-17  2.2214173244301754e-17  2.2219218026433250e-17  2.2216362989482456e-17  2.2208359501450201e-17  2.2198826196449993e-17  2.2131973413707124e-17  2.2122340203966714e-17  2.2087344343976596e-17  2.2159615841864982e-17  2.2224430599040782e-17  2.2214347688113394e-17  2.2186946609942916e-17  2.2188269063709302e-17  2.2200074630266598e-17  2.2138956734055532e-17  2.2212402756054340e-17  2.2209472194451945e-17  2.2150657509614783e-17  2.2152615899678425e-17  2.1966313473747380e-17  2.2216960452809699e-17  2.2173342420929693e-17  2.2209880488285513e-17  2.1988981309129583e-17  2.2176081335248994e-17  2.2221767364412550e-17  2.2011650879763170e-17  2.1934824711327513e-17  2.2129947143750278e-17  2.2202947542827349e-17  2.1987132775089362e-17  2.2113624756861148e-17  2.1974608948277842e-17  2.1963664168783975e-17  2.1836419548471732e-17  2.1893524416493403e-17  2.2161654896159059e-17  2.2008595999209624e-17  2.2032435684495630e-17  2.1994708564326601e-17  2.1905838182412226e-17  2.1859798387674348e-17  2.1882393544891827e-17  2.2176727379956551e-17  2.2095683292066095e-17  2.2211956848005023e-17  2.2068118274932118e-17  2.2087180946176664e-17  2.2062175661849706e-17  2.2158711674397279e-17  2.2011592206240388e-17  2.1910820071447688e-17  2.1889225346533223e-17  2.2143419765021221e-17  2.1897876737611888e-17  2.1869216161540886e-17  2.2159001865157648e-17  2.2170314979974190e-17  2.1899948523999679e-17  2.1897600894032935e-17  2.1780202439183496e-17  2.1752084096122463e-17  2.1715396580239073e-17  2.1957313879894986e-17  2.1965446050519072e-17  2.1748956570103179e-17  2.1772715451612510e-17  2.1822885657546682e-17  2.1782754400471548e-17  2.1934313153418341e-17  2.1817672209290325e-17  2.2146127367942020e-17  2.2109813592726616e-17  2.1870003606129318e-17  2.2162962940435556e-17  2.1887038641477521e-17  2.1868486775308254e-17  2.1935652209872267e-17  2.2110524118835147e-17  2.1840649879072108e-17  2.1863962471986934e-17  2.2185158000796626e-17  2.1860461813293903e-17  2.2114135503566498e-17  2.1785790605720941e-17  2.1801107783786818e-17  2.2235586870002762e-17  2.2156760370023004e-17  2.1835605875378997e-17  2.1854429223509473e-17  2.1672306360816089e-17  2.1653570060952970e-17  2.2156486232098839e-17  2.1847709885466628e-17  2.2146975984862598e-17  2.2133112967634177e-17  2.2135422309583789e-17  2.2160033244951748e-17  2.2086425565075831e-17  2.1933322009233862e-17  2.1721939796045403e-17  2.2063790748327833e-17  2.1789328100745932e-17  2.1828276455159525e-17  2.1817729640351914e-17  2.1634272390547359e-17  2.1652782804814414e-17  2.1603799699362270e-17  2.1549488753540411e-17  2.1521674143829433e-17  2.1600823810680748e-17  2.1818579158002807e-17  2.1914173473557111e-17  2.2145638845227794e-17  2.2135277594566594e-17  2.1719193251337321e-17  2.1822550015123258e-17  2.1829087111026116e-17  2.1780428497534237e-17  2.2143006855435909e-17  2.1667675156271163e-17  2.1707482371037620e-17  2.2168183751187712e-17  2.1681932284032353e-17  2.1901210390834729e-17  2.2117648122555216e-17  2.2108036546024501e-17  2.1864163123068497e-17  2.1861818098529688e-17  2.1878866466302358e-17  2.2131508827516087e-17  2.2117922805388826e-17  2.2263634143831777e-17  2.2140673795193163e-17  2.2193473580201135e-17  2.1908002727290718e-17  2.2212842881214759e-17  2.2167203422987840e-17  2.1916920602402395e-17  2.2152591116864196e-17  2.1974829545613757e-17  2.1837944514007881e-17  2.2186516642607883e-17  2.2115332941219871e-17  2.2171733097243390e-17  2.1917983432847237e-17  2.2131576447876506e-17  2.1891349289053069e-17  2.1901534356626921e-17  2.1729886621046335e-17  2.1800088720558975e-17  2.1962226123753576e-17  2.1922115868755257e-17  2.1803974449256306e-17  2.1750600368861504e-17  2.2201340760473728e-17  2.2107394414550079e-17  2.2160827619017779e-17  2.2048489675143054e-17  2.2026312184270991e-17  2.2120214729069260e-17  2.1962603433085867e-17  2.1813513042264912e-17  2.1871370920394964e-17  2.1749319907955088e-17  2.1806412122396362e-17  2.1779078085737837e-17  2.1911575770018474e-17  2.2032056537376401e-17  2.2002363787879563e-17  2.1831512877205426e-17  2.1866298943775733e-17  2.1880211287486966e-17  2.1851484846537543e-17  2.2145380940237304e-17  2.1901176097214128e-17  2.1890435302707677e-17  2.2108332652092612e-17  2.2160803556419015e-17  2.1856716478268057e-17  2.2199360651836996e-17  2.1956915729320255e-17  2.1912824581731386e-17  2.1942150888609522e-17  2.1834705852384006e-17  2.1893647797455812e-17  2.1872682604756762e-17  2.1971783929585820e-17  2.2019120438568114e-17  2.2004343402114280e-17  2.1921802233780586e-17  2.1878882031163128e-17  2.1939962041205390e-17  2.2198584514323111e-17  2.1960239518034972e-17  2.1968734080133888e-17  2.2052947149695519e-17  2.2061577661915076e-17  2.2123167184250521e-17  2.2396539502856811e-17  2.1950432709802667e-17  2.1939012003918861e-17  2.1988301740375348e-17  2.1905746091295074e-17  2.2079907668616086e-17  2.1983288298776149e-17  2.2130149410927760e-17  2.2134494746117221e-17  2.2172884669291756e-17  2.2152505320223144e-17  2.1952509359534313e-17  2.1995612568275142e-17  2.2250500522864074e-17  2.2192824098783629e-17  2.2121315229505623e-17  2.2203504802041805e-17  2.2196939335277687e-17  2.2205802310398035e-17  2.2094715713694784e-17  2.2204605924445478e-17  2.2125396385028611e-17  2.2177799059544655e-17  2.2207257667433547e-17  2.2214734348905393e-17  2.2194388163259956e-17  2.2192498182841657e-17  2.2218326049970226e-17  2.2212450562328524e-17  2.2220611985063499e-17  2.2209731999041950e-17  2.2214420917404530e-17  2.2209013013744343e-17  2.2157578748112370e-17  2.2199686192652561e-17  2.2224078086811416e-17  2.2110941835028215e-17  2.1791515210860980e-17  2.1786108839887437e-17  2.1824073558939004e-17  2.1518975403564376e-17  2.1595993695132255e-17  2.1607579903993905e-17  2.1651819289258724e-17  2.1665694862384421e-17  2.1676757601925667e-17  2.2229343162168014e-17  2.2153591280611628e-17  2.1823267886425039e-17  2.1843366531743461e-17  2.2151324497365687e-17  2.1965817557205183e-17  2.1945475076640249e-17  2.1934576197064396e-17  2.1736879625392060e-17  2.1728270598862309e-17  2.1782036759570695e-17  2.2055795686118071e-17  2.2148186179727469e-17  2.2130692498615592e-17  2.1811725501172455e-17  2.1729160380095775e-17  2.1780182901300307e-17  2.1765088910155019e-17  2.2140453983227527e-17  2.1648338719321327e-17  2.2114317961041392e-17  2.2168209943636237e-17  2.1857798202551265e-17  2.1786927648958251e-17  2.1833829369079219e-17  2.2089045020548034e-17  2.2204681765137718e-17  2.2190345869552393e-17  2.2188682807425156e-17  2.2194634951611346e-17  2.2151240119565643e-17  2.2157129159631154e-17  2.2199565757608440e-17  2.2209276888669485e-17  2.2199224534908573e-17  2.2184901990323347e-17  2.2207178522484981e-17  2.2150441000112344e-17  2.1888165856528192e-17  2.2153593065731543e-17  2.2174438945400705e-17  2.1974140568909238e-17  2.2129459638594981e-17  2.1932643637756031e-17  2.1816394427677723e-17  2.1927634694654599e-17  2.2202715605473600e-17  2.1961506284397097e-17  2.1835998525204933e-17  2.2133207079110386e-17  2.2184395577113673e-17  2.2145486897646877e-17  2.1993387070359938e-17  2.1858369853399491e-17  2.2095789933278891e-17  2.1886976311846993e-17  2.2133770750490881e-17  2.1741809511129709e-17  2.1702601989774325e-17  2.1700848300725905e-17  2.1520318653215803e-17  2.1383283395602463e-17  2.1481702855052302e-17  2.1394575001053881e-17  2.1315704896974840e-17  2.1443845545414702e-17  2.2099778724690231e-17  2.1713567472055013e-17  2.1748259570944351e-17  2.2143371427511617e-17  2.1691266833117671e-17  2.1267182000519804e-17  2.1325830007507677e-17  2.1223147726190842e-17  2.1761666537513071e-17  2.2083922500259852e-17  2.1794283955822821e-17  2.2060772925649393e-17  2.1452055435269534e-17  2.2093085727619579e-17  2.1569287144782554e-17  2.1650521119544824e-17  2.2102632201270200e-17  2.1492122696491525e-17  2.1588432354107829e-17  2.2130029613441608e-17  2.1632664586026188e-17  2.1629517089708911e-17  2.1676490906197588e-17  2.2215633967986603e-17  2.2206946869840091e-17  2.2178284924329480e-17  2.2201579527179994e-17  2.2209594938238971e-17  2.2216515160496681e-17  2.2232598408808658e-17  2.2214944539184910e-17  2.2194629435158133e-17  2.2214783331636743e-17  2.1052607801256772e-17  2.1179829478960065e-17  2.1070860952843007e-17  2.1571345756837414e-17  2.1045180536949210e-17  2.1113888702066342e-17  2.1282908437744465e-17  2.2079850639281632e-17  2.2081615874129868e-17  2.2057739021998505e-17  2.1480703981313328e-17  2.1592757422678082e-17  2.1455566157718967e-17  2.2071465872748144e-17  2.2060782705398825e-17  2.2096906714779642e-17  2.1362490506805527e-17  2.1355847782047133e-17  2.2060693630386950e-17  2.2085954241566301e-17  2.2032917661174035e-17  2.1479292809800759e-17  2.1579165593636961e-17  2.2102620328922661e-17  2.2099852645845877e-17  2.2144786900667822e-17  2.2135491353640255e-17  2.2246031876026765e-17  2.1520823432475975e-17  2.2106632077477452e-17  2.2107901691937643e-17  2.2088384752349460e-17  2.1567998742273753e-17  2.2315593951224655e-17  2.2124415469996600e-17  2.1600277677660179e-17  2.2131010249255353e-17  2.1640799400323008e-17  2.1280159559076030e-17  2.2107820775040215e-17  2.2072984992273054e-17  2.1677991296196794e-17  2.1360007948386186e-17  2.1708508347690444e-17  2.2140698853316578e-17  2.1746417719418296e-17  2.2124204829873823e-17  2.2142373915553547e-17  2.2093999709688432e-17  2.1755638214933715e-17  2.1743913161524184e-17  2.1419900382407875e-17  2.1491086618079226e-17  2.2099297077783969e-17  2.2047511624468799e-17  2.1527740555405244e-17  2.2184076010844518e-17  2.2193943693550810e-17  2.2181970007104556e-17  2.2194585761333049e-17  2.2058896901703730e-17  2.2211634113703288e-17  2.2094418927349374e-17  2.2190152557679131e-17  2.2089854401601401e-17  2.2164472367289756e-17  2.2083870943769434e-17  2.2057791311733341e-17  2.2064464429299581e-17  2.2226222737792255e-17  2.2128828545729818e-17  2.2073731216672239e-17  2.2127009716989097e-17  2.2085156080478902e-17  2.2139886712095798e-17  2.2063671306832639e-17  2.2080899715613848e-17  2.2081186014024930e-17  2.2029659282172491e-17  2.2035319514832154e-17  2.2020419307705114e-17  2.2091185381982571e-17  2.2138524642649265e-17  2.2102365645507383e-17  2.2070918042750603e-17  2.2203762199549425e-17  2.2038903006036022e-17  2.2162228467537474e-17  2.2019478217016215e-17  2.2031626535778995e-17  2.2026992485782609e-17  2.1838853745124535e-17  2.1906583802952603e-17  2.1880054362258014e-17  2.1867413708425932e-17  2.1881422299600226e-17  2.1940306340055756e-17  2.2078541507528518e-17  2.2201269305751637e-17  2.1963322850307773e-17  2.1984212485758116e-17  2.1970601151400684e-17  2.2062221042504020e-17  2.2131597847551208e-17  2.2135334410255438e-17  2.2148836878953577e-17  2.1890292905142114e-17  2.2108227502278531e-17  2.2169692048887729e-17  2.2161555742147480e-17  2.2151278358796045e-17  2.2200926026991292e-17  2.1957311071524057e-17  2.1953087769461702e-17  2.1995460572941091e-17  2.1913587169786371e-17  2.2123439341258514e-17  2.2248861135993122e-17  2.2395490571651447e-17  2.1950280155976906e-17  2.1990522267053531e-17  2.2179175589043798e-17  2.2170810020091034e-17  2.2199169033802809e-17  2.2107964729781450e-17  2.2098209413009913e-17  2.2025463683783278e-17  2.2100326060451230e-17  2.2115355753290083e-17  2.2230133209994013e-17  2.2008041554790555e-17  2.2049058902520527e-17  2.1903858610474665e-17  2.1927089553456234e-17  2.1978577159103056e-17  2.1958227979186441e-17  2.1933365904465742e-17  2.2176871727230011e-17  2.2220277762892784e-17  2.2011504507132207e-17  2.2027381837004065e-17  2.2069018981318221e-17  2.2077582973164349e-17  2.1993785852695706e-17  2.1973471523162018e-17  2.2085718434343351e-17  2.2088873934218011e-17  2.2010205094311618e-17  2.2025002949431096e-17  2.2045318150782064e-17  2.2078079712141396e-17  2.2077017812530720e-17  2.2365857752013721e-17  2.2002711049786608e-17  2.2048593975032782e-17  2.1940500269399945e-17  2.1865313104282976e-17  2.1816153508633059e-17  2.1836322046864646e-17  2.1892497518591051e-17  2.1960157314543996e-17  2.2047492822144235e-17  2.2121786576298510e-17  2.2146872432771788e-17  2.1974991580042471e-17  2.2052428708869121e-17  2.2160849521732507e-17  2.2111690577366786e-17  2.1960772549509024e-17  2.2197997530960817e-17  2.1887916856537458e-17  2.1930498466438459e-17  2.1961858360003909e-17  2.2147682811275366e-17  2.2190318588457311e-17  2.1940459424922609e-17  2.2272447863192112e-17  2.2049577126829421e-17  2.1979159260039949e-17  2.1961157990371499e-17  2.1928391958465754e-17  2.2025208835962897e-17  2.2031610036338367e-17  2.2007636791885325e-17  2.2187528601242315e-17  2.2140723784920644e-17  2.2194640187443615e-17  2.2175155511542716e-17  2.2197043964000955e-17  2.2207665372559450e-17  2.2175527814000258e-17  2.2225299366259731e-17  2.2189610629959577e-17  2.2197605835110688e-17  2.2211380273285933e-17  2.2189215910112138e-17  2.2200698083714952e-17  2.2213120886481857e-17  2.2226877215529421e-17  2.2212875624823537e-17  2.2209849271037279e-17  2.2220250794244602e-17  2.2008416273630363e-17  2.1905130912610101e-17  2.2012179735413157e-17  2.2056295708635489e-17  2.2235633289972899e-17  2.2182493906158494e-17  2.2098574557595195e-17  2.2123323065185058e-17  2.2223010046958059e-17  2.2053493854975466e-17  2.2026663573011297e-17  2.2133009709347721e-17  2.2196913314511448e-17  2.2041555715058170e-17  2.2126690705751540e-17  2.2026457195935836e-17  2.1971632984131239e-17  2.2062077442812570e-17  2.2049670890714129e-17  2.2069499994585728e-17  2.1984978213222268e-17  2.1987879130338590e-17  2.1966354786549560e-17  2.2189246033114961e-17  2.2122146182373929e-17  2.2039686410488057e-17  2.2000489234431320e-17  2.2112044803010245e-17  2.2138312090617946e-17  2.2230621311077052e-17  2.1783605714475849e-17  2.1649904778994852e-17  2.1825386839900506e-17  2.1833977945362000e-17  2.2154493404312827e-17  2.2169417876088270e-17  2.2138724797874206e-17  2.2136585707826398e-17  2.1824941562537758e-17  2.2169968143673873e-17  2.2140294823554520e-17  2.2140808077645805e-17  2.1891985766809260e-17  2.2114422478016695e-17  2.1861900631108106e-17  2.1694703819895592e-17  2.1862906380957243e-17  2.2171532727309056e-17  2.1901661797115071e-17  2.1730566490154266e-17  2.2142112015727131e-17  2.2160523759934533e-17  2.2110252273577640e-17  2.1921067344894110e-17  2.1751871058153476e-17  2.2106596344500242e-17  2.1818912399207995e-17  2.1125159404441636e-17  2.1061286750489865e-17  2.1547323434766823e-17  2.1595167870244695e-17  2.1228578474138385e-17  2.2090721684531603e-17  2.1614760311986203e-17  2.1452014170872057e-17  2.1356042978057956e-17  2.1599607622037197e-17  2.1642527495005148e-17  2.2122639989782577e-17  2.2133329618997257e-17  2.2315022378011490e-17  2.2106898492160604e-17  2.2133580058438087e-17  2.2073334315891874e-17  2.1740488539323283e-17  2.1677198074035112e-17  2.1713000838152529e-17  2.1356916338695158e-17  2.1443809165087646e-17  2.1748572881120237e-17  2.2142216760809980e-17  2.2122609813789732e-17  2.2145811582831881e-17  2.2096303784029356e-17  2.1754506697899991e-17  2.1830884818185776e-17  2.1739942916354987e-17  2.1426327244389946e-17  2.1516978978212617e-17  2.1494430542696865e-17  2.2099928670625270e-17  2.2040533376589963e-17  2.1627631143979748e-17  2.1645386401348869e-17  2.1790069231468859e-17  2.1520052789921494e-17  2.1606270222973690e-17  2.1583776585100226e-17  2.1510388972002485e-17  2.1690864995538852e-17  2.2136893949128959e-17  2.2139654357080188e-17  2.2137065797441677e-17  2.1734837582629394e-17  2.1793407822858047e-17  2.1677750480354261e-17  2.1659474743438622e-17  2.1594220492293897e-17  2.1825497924991570e-17  2.1809867022031618e-17  2.1778638849033562e-17  2.2211227299858703e-17  2.2165533674734061e-17  2.2235551823081093e-17  2.2217148714490408e-17  2.2220547788929200e-17  2.2194839072773120e-17  2.2215178255129413e-17  2.2173763112380505e-17  2.1965917284375981e-17  2.2215825222887719e-17  2.1988521167028644e-17  2.2176029942375810e-17  2.2209573310959520e-17  2.1986340144718167e-17  2.2115317057539059e-17  2.1891706949215409e-17  2.2062105839206915e-17  2.2173392236468495e-17  2.2166674986308693e-17  2.2202032485472254e-17  2.2223372222018930e-17  2.2149309934738284e-17  2.2210057717854296e-17  2.2198414983435244e-17  2.2206762685817621e-17  2.2177247828691715e-17  2.2172316570680383e-17  2.2212342818508703e-17  2.2218495437593664e-17  2.2204281237216181e-17  2.2213019074963999e-17  2.2222981667045332e-17  2.2208484836290707e-17  2.2171106702836561e-17  2.2155033006812505e-17  2.2205144652158366e-17  2.2223473917691149e-17  2.2201451428350440e-17  2.2222389748378767e-17  2.2203376816840692e-17  2.2139074025097828e-17  2.2105939330166996e-17  2.2081459605997213e-17  2.2162278481317133e-17  2.2107856250252788e-17  2.2100779589732603e-17  2.2172416799569888e-17  2.2185364495799268e-17  2.2078190292645436e-17  2.2140181070208763e-17  2.2105841191358425e-17  2.2210765039947980e-17  2.2199695138974271e-17  2.1867858023582488e-17  2.2054228927349649e-17  2.1974578602139842e-17  2.2121761656512886e-17  2.2149081903767007e-17  2.1960500120877908e-17  2.2199191017842762e-17  2.2151595479490778e-17  2.1961764468699527e-17  2.2273797418206797e-17  2.2084325453757640e-17  2.1766384108795906e-17  2.1739724221039524e-17  2.2129486683586450e-17  2.2127963362051071e-17  2.1971488453822364e-17  2.2198288360440245e-17  2.2016220861521470e-17  2.2172438556278229e-17  2.2050445298884001e-17  2.1916646636633081e-17  2.2114471432277861e-17  2.2106264850069171e-17  2.2100069855564324e-17  2.2162303199068203e-17  2.2163057648605038e-17  2.2215229902441990e-17  2.2235167401618435e-17  2.2196008472767518e-17  2.2188429381659726e-17  2.2212748154726651e-17  2.2228895524699129e-17  2.2071125731645044e-17  2.1948597448505916e-17  2.1983662273395876e-17  2.1983468895141405e-17  2.1943650751968020e-17  2.2168425786490793e-17  2.2186607398330753e-17  2.2046918788032237e-17  2.2204493531496762e-17  2.2035414950361466e-17  2.1996074516552142e-17  2.1994450121343470e-17  2.1859408552150423e-17  2.1837723846565558e-17  2.1887833413965868e-17  2.1749226684930506e-17  2.1571502369225433e-17  2.1598379053981259e-17  2.1554220450277138e-17  2.2117774585001090e-17  2.1751927058578533e-17  2.1755022727350046e-17  2.2156475515921961e-17  2.2222910991296970e-17  2.2140295246757740e-17  2.2163258693733841e-17  2.1784855363527413e-17  2.2132133466105295e-17  2.2137741840556540e-17  2.2074927535722451e-17  2.1908783442293062e-17  2.1841816673274332e-17  2.2109530842159977e-17  2.1701270304989011e-17  2.1815927562629987e-17  2.1635686759976326e-17  2.1544698972024386e-17  2.2150992448729372e-17  2.2130649960075261e-17  2.1842688338089851e-17  2.1823578566664321e-17  2.2154683010238002e-17  2.1881857641627473e-17  2.2132454571075631e-17  2.1891481539618616e-17  2.2159470568548336e-17  2.2093411823517656e-17  2.2219898383375076e-17  2.2190936094102005e-17  2.2195402555657124e-17  2.1907898416416063e-17  2.2213400280366135e-17  2.2167241860994017e-17  2.1918698752532041e-17  2.2152917628010414e-17  2.1975443170333213e-17  2.2186419892616260e-17  2.1917265206629042e-17  2.2131514756363708e-17  2.1801520262571836e-17  2.1961299139091057e-17  2.1804099738983691e-17  2.2203381261697929e-17  2.2048898661695074e-17  2.2118207872028105e-17  2.2204455733244435e-17  2.2198690032342121e-17  2.1590481373939030e-17  2.1829223244425048e-17  2.1668775613281848e-17  2.1636357570264422e-17  2.1862368793435012e-17  2.1695678510622382e-17  2.2146903058703445e-17  2.2117626305048783e-17  2.1765427131698135e-17  2.1766251339867451e-17  2.1802948312322341e-17  2.1720157969203078e-17  2.2183184688088525e-17  2.2168552053600556e-17  2.1861509387205