<?xml version="1.0"?>
<VTKFile type="UnstructuredGrid"  version="0.1"  >
<UnstructuredGrid>
<Piece  NumberOfPoints="4654" NumberOfCells="21245">
<Points>
<DataArray  type="Float64"  NumberOfComponents="3"  format="ascii">-48.891708 8.046097 26.093318  -47.61208475 8.076234749999999 25.25555975  -47.61322075 7.18453 25.498465  -47.9126225 7.482019999999999 24.83600475  -46.933537 6.917942999999999 23.5786915  -46.3335975 7.214667749999999 24.66070675  -46.63299925 7.512157749999999 23.9982465  -46.63413525 6.620452999999999 24.24115175  -46.3347335 6.322963 24.903612  -46.3324615 8.106372499999999 24.4178015  -44.975366 5.789789 21.064065  -44.3754265 6.08651375 22.14608025  -44.67482825 6.38400375 21.48362  -45.9544515 6.353866 22.32137825  -45.354512 6.650590749999999 23.4033935  -45.65391375 6.94808075 22.74093325  -44.3742905 6.978218500000001 21.903175  -44.07488875 6.680728500000001 22.56563525  -43.775487 6.3832385 23.2280955  -44.67596425000001 5.492298999999999 21.72652525  -45.65504975 6.056375999999999 22.9838385  -44.37656250000001 5.194808999999999 22.3889855  -44.07602475 5.78902375 22.8085405  -43.777759 4.599829 23.713906  -43.776623 5.49153375 23.47100075  -44.07716075 4.897319 23.05144575  -45.355648 5.758886 23.64629875  -45.05624625 5.461396 24.308759  -45.05511025 6.353100749999999 24.06585375  -43.773215 8.166648 22.742285  -43.774351 7.27494325 22.98519025  -44.07375275 7.57243325 22.32273  -45.353376 7.5422955 23.16048825  -45.05397425 7.2448055 23.8229485  -45.05283825 8.136510250000001 23.58004325  -47.23539575 6.83211325 26.25118675  -47.26319375 7.79191875 25.9668745  -45.6068815 6.577935 26.12474325  -45.9569085 5.97054625 25.65633375  -45.9847065 6.93035175 25.3720215  -45.6346795 7.5377405 25.840431  -45.5790835 5.6181295 26.4090555  -48.51388300000001 7.69368025 26.84603975  -48.13605800000001 7.3412635 27.5987615  -46.85757075000001 6.4796965 27.0039085  -46.88536875 7.439502 26.71959625  -47.380408 6.63643 29.104205  -46.12971875 6.7346685 28.22503975  -46.47974575000001 6.12727975 27.75663025  -46.50754375 7.087085249999999 27.472318  -45.2568545 7.18532375 26.59315275  -45.2290565 6.22551825 26.877465  -44.8790295 6.832907000000001 27.3458745  -47.758233 6.98884675 28.35148325  -43.42773200000001 5.20721775 24.1823155  -44.67842125 5.10897925 25.06148075  -44.70621925 6.06878475 24.7771685  -44.35619225000001 6.6761735 25.245578  -44.32839425 5.716368 25.52989025  -43.077705 5.8146065 24.650725  -42.377651 7.029384 25.587544  -42.727678 6.42199525 25.1191345  -43.97836725000001 6.32375675 25.99829975  -44.00616525 7.28356225 25.7139875  -43.62834025 6.9311455 26.46670925  -46.8838935 8.5061135 26.39329025  -48.13458275000001 8.407875000000001 27.2724555  -48.51240775 8.76029175 26.51973375  -48.1331075 9.474486499999999 26.9461495  -46.50459325 9.220308249999999 26.819706  -47.75528250000001 9.12206975 27.69887125  -47.37745750000001 8.769653 28.451593  -46.12676825 8.867891499999999 27.57242775  -44.876079 8.96613 26.6932625  -46.5060685 8.15369675 27.146012  -47.75675775000001 8.055458250000001 28.02517725  -45.25537925 8.251935249999999 26.26684675  -46.1282435 7.80128 27.89873375  -44.87755425 7.8995185 27.0195685  -47.37893275 7.703041499999999 28.777899  -47.374507 10.902876 27.798981  -46.125293 9.934502999999999 27.24612175  -47.37598225000001 9.836264499999999 28.125287  -47.75380725 10.18868125 27.37256525  -43.626865 7.997757 26.14040325  -33.568867 18.219115 40.953572  -30.3161035 18.91314 39.1084825  -31.003247 17.314255 39.331713  -31.684586 18.5605625 38.1873465  -32.8817235 19.818 40.7303415  -28.437627 16.409395 37.709854  -29.118966 17.6557025 36.5654875  -50.196006 9.069295 23.110795  -48.88987874999999 9.037205 22.318225  -48.59030825 8.84363325 23.0186675  -48.890846 8.249418500000001 22.5991125  -47.585686 7.429542 22.08743  -47.58471874999999 8.217328500000001 21.8065425  -47.28514825 8.02375675 22.506985  -46.9846105 8.617971499999999 22.92654  -47.284181 8.81154325 22.2260975  -47.5837515 9.005115 21.525655  -45.97998825000001 7.203880249999999 21.9953025  -44.97439875000001 6.5775755 20.7831775  -45.979021 7.991666749999999 21.714415  -45.6794505 7.798095 22.4148575  -44.673861 7.17179025 21.2027325  -44.9734315 7.365361999999999 20.50229  -46.28052599999999 6.6096655 21.5757475  -46.27955875 7.397451999999999 21.29486  -44.971497 8.940935 19.940515  -44.6719265 8.747363249999999 20.6409575  -45.97805375 8.77945325 21.4335275  -44.97246425 8.1531485 20.2214025  -44.67289375 7.959576749999999 20.921845  -45.67848325 8.585881499999999 22.13397  -44.372356 8.553791499999999 21.3414  -46.2785915 8.185238500000001 21.0139725  -46.27762425 8.973025 20.733085  -44.07278549999999 8.360219749999999 22.0418425  -45.37891275 8.392309749999999 22.8344125  -44.37332325 7.766005 21.6222875  -45.559506 14.101789 29.350825  -44.977475 14.42215175 30.0380935  -43.85321975 13.80425175 29.2282885  -45.195738 13.71900675 30.04733225  -44.83197 13.3362245 30.7438395  -44.613707 14.0393695 30.73460075  -43.48945175 13.4214695 29.92479575  -42.1469335 13.5067145 29.105752  -43.27118875 14.1246145 29.915557  -44.395444 14.7425145 30.725362  -44.104434 12.57066 32.136854  -43.12568375 13.03868725 30.621303  -43.886171 13.273805 32.12761525  -42.76191575 12.655905 31.31781025  -41.4193975 12.74115 30.4987665  -42.90742075 13.74183225 30.61206425  -41.7831655 13.12393225 29.80225925  -42.54365275 13.35905 31.3085715  -43.667908 13.97695 32.1183765  -44.249939 13.65658725 31.431108  -44.031676 14.35973225 31.42186925  -44.468202 12.95344225 31.44034675  -43.231382 15.38324 32.099899  -42.10712675000001 14.76534 31.290094  -42.68915775000001 14.44497725 30.6028255  -42.32538975 14.062195 31.29933275  -41.5649025 13.82707725 29.7930205  -41.2011345 13.444295 30.48952775  -40.9828715 14.14744 30.480289  -43.449645 14.680095 32.10913775  -43.813413 15.06287725 31.4126305  -38.734361 12.91164 28.860679  -39.85861625 13.52954 29.670484  -40.44064725 13.20917725 28.9832155  -40.07687925 12.826395 29.67972275  -39.888716 14.6366695 31.6332545  -40.5784455 14.91175825 30.6278105  -40.43579375 14.39205475 31.05677175  -41.56004900000001 15.00995475 31.86657675  -41.155623 15.774273 32.01409825  -41.01297125 15.2545695 32.4430595  -42.1372265 15.8724695 33.2528645  -40.60854525 16.01888775 32.590581  -40.4658935 15.49918425 33.01954225  -39.45419025 14.29385825 29.8180055  -38.329935 13.67595825 29.0082005  -39.3115385 13.77415475 30.24696675  -38.9071125 14.538473 30.39448825  -37.925509 14.4402765 29.155722  -36.16419 17.873207 38.841986  -33.0424365 18.366281 37.1054195  -34.231598 19.5998485 39.7004755  -34.8665285 18.046161 39.897779  -33.677367 16.8125935 37.302723  -32.3797055 16.9855475 38.358516  -31.190544 15.75198 35.76346  -30.4954245 17.326995 35.5922905  -45.9835705 7.8220565 25.12911625  -44.70508325 6.9604895 24.53426325  -43.426596 6.0989225 23.93941025  -43.424324 7.882332 23.45359975  -44.70394725 7.85219425 24.291358  -44.35505625 7.56787825 25.00267275  -43.42546 6.99062725 23.696505  -43.075433 7.598016 24.1649145  -42.726542 7.313700000000001 24.87622925  -43.076569 6.706311250000001 24.40781975  -36.161274 14.06959 31.53425  -35.56140225 14.296771 32.07606525  -35.8617765 14.80617525 31.50891125  -36.79294375 14.853284 32.8132885  -37.4246135 15.636978 34.092327  -36.193072 15.080465 33.35510375  -36.49344625000001 15.58986925 32.78794975  -35.562279 15.5427605 31.4835725  -35.26190475 15.03335625 32.0507265  -34.96153049999999 14.523952 32.6178805  -42.635804 12.73156075 28.728347  -43.12592775 12.970396 27.89496525  -43.1246745 11.956407 28.350942  -44.34209025 13.029098 28.8508835  -40.689843 9.811025000000001 27.351059  -41.41838825000001 11.65886975 28.2284055  -40.20097250000001 10.58617875 27.728464  -40.69109625 10.825014 26.89508225  -40.69234950000001 11.839003 26.4391055  -41.4196415 12.67285875 27.77242875  -40.20222575 11.60016775 27.27248725  -39.712102 11.3613325 28.105869  -40.92951775 12.4340235 28.6058105  -41.90725875 10.883716 27.8510005  -41.908512 11.897705 27.39502375  -41.90976525 12.911694 26.939047  -39.71335525000001 12.3753215 27.64989225  -39.22448475 13.15047525 28.02729725  -39.7146085 13.3893105 27.1939155  -40.930771 13.4480125 28.14983375  -40.203479 12.61415675 26.8165105  -39.2232315 12.13648625 28.483274  -45.703341 10.62991325 27.6870005  -46.11842475 10.8940155 26.913276  -44.454127 9.66154025 27.13414125  -44.86921075 9.925642499999999 26.36041675  -44.8623425 10.885155 26.027571  -44.44725875 10.62105275 26.8012955  -44.032175 10.3569505 27.57502  -43.204913 8.69316725 26.581282  -41.955699 7.72479425 26.02842275  -42.37078275 7.9888965 25.25469825  -42.3639145 8.948409 24.9218525  -43.19804475 9.652679750000001 26.24843625  -41.94883075 8.684306750000001 25.695577  -41.53374700000001 8.420204500000001 26.4693015  -42.782961 9.3885775 27.02216075  -43.61999675 8.957269499999999 25.8075575  -42.350178 10.867434 24.256161  -41.93509425 10.60333175 25.0298855  -43.1911765 10.61219225 25.9155905  -42.35704625 9.9079215 24.58900675  -41.9419625 9.64381925 25.36273125  -42.77609275 10.34809 26.689315  -41.5200105 10.3392295 25.80361  -43.6131285 9.916782 25.47471175  -43.60626025 10.8762945 25.141866  -41.10492675 10.07512725 26.5773345  -42.361009 10.08398775 27.4630395  -41.52687875 9.379716999999999 26.13645575  -41.111795 9.115614750000001 26.91018025  -50.198776 5.524272 24.198457  -48.8911055 4.77018275 23.57782075  -48.59352175000001 5.29316125 24.07731925  -48.8929235 5.59065125 23.414859  -47.587071 5.657030499999999 22.631261  -47.585253 4.836562 22.79422275  -47.28766925000001 5.3595405 23.29372125  -46.98826750000001 5.0620505 23.9561815  -47.28585125000001 4.539072 23.456683  -47.583435 4.0160935 22.9571845  -46.2794005 4.90294125 22.01062475  -44.973548 4.9693205 21.22702675  -45.97999875000001 4.60545125 22.673085  -44.67414625000001 4.6718305 21.889487  -44.97173 4.148852 21.3899885  -46.2775825 4.08247275 22.1735
[...]
<PointData  Scalars="c_HbO2"> 
<DataArray  type="Float64"  Name="c_HbO2"  format="ascii">2.2061618982096082e-17  2.1035918863320261e-17  2.1064204269849977e-17  2.1034881276903037e-17  1.9940027528202216e-17  2.0154753518418140e-17  2.0058594986971608e-17  2.0028169306499771e-17  2.0087068226360890e-17  2.0093334573023387e-17  2.1531540984577895e-17  2.1677345807323300e-17  2.1755486180936190e-17  2.0246935661848534e-17  2.0470484564075909e-17  2.0330250132043332e-17  2.1922338771741991e-17  2.2001524928583870e-17  2.2013628969204862e-17  2.1825892410061055e-17  2.0326615860574939e-17  2.1921586638203907e-17  2.1970485134884231e-17  2.2019783832521957e-17  2.1957095023314737e-17  2.2068877546971622e-17  2.0485783066992333e-17  2.0449250025436445e-17  2.0652023768936313e-17  2.2026888246731342e-17  2.1958123907496190e-17  2.2093116081183654e-17  2.0465775381819376e-17  2.0548923789149764e-17  2.0449976084668885e-17  2.1104408002197756e-17  2.1115934414690902e-17  2.0314400912360263e-17  2.0184659666422800e-17  2.0185544619346611e-17  2.0281142380347770e-17  2.0302715737419180e-17  2.2066229913980309e-17  2.2075798455955177e-17  2.1142644307289383e-17  2.1188882384916336e-17  2.2083006974866435e-17  2.1375349877662943e-17  2.1339047309709614e-17  2.1250848218561749e-17  2.0430961349424715e-17  2.0396269520137001e-17  2.0527137747969839e-17  2.2063070430608316e-17  2.2021816365036767e-17  2.0793564694402718e-17  2.0711172382149894e-17  2.0755755421135629e-17  2.0824570855130720e-17  2.2042349449229764e-17  2.2056411269894388e-17  2.2173021401675121e-17  2.0942219441510021e-17  2.0858381551644134e-17  2.0961928129906472e-17  2.1137704680581185e-17  2.2222078697837761e-17  2.2065422404458062e-17  2.2080529122733499e-17  2.1190143608929453e-17  2.2055563096026682e-17  2.2089732098590394e-17  2.1237149817188427e-17  2.0516757386263101e-17  2.1210536354232422e-17  2.2110710679509008e-17  2.0460696416930377e-17  2.1292976948685615e-17  2.0531120394847331e-17  2.2082012912517820e-17  2.2082852623032596e-17  2.1365986337317391e-17  2.2096793370012255e-17  2.1990300954324291e-17  2.0927523838944764e-17  2.2203531817283486e-17  2.2149372091067608e-17  2.2166182163734356e-17  2.2167212719598213e-17  2.2227063318432581e-17  2.2207766659766183e-17  2.2210242375512912e-17  2.1976397697023157e-17  2.0605524199391981e-17  2.0683565841460332e-17  2.0550674583880067e-17  1.9894283021222020e-17  2.0021888275499178e-17  2.0036858342518010e-17  1.9930825072163240e-17  2.0087603462437222e-17  1.9897240206114121e-17  2.0241425013630702e-17  2.1563652455365647e-17  2.0088401238045557e-17  2.0206056564441933e-17  2.1791601410796806e-17  2.1572554643556840e-17  1.9935644535350756e-17  2.0182484027988184e-17  2.1539174333662658e-17  2.1804433331466418e-17  2.0245181302245692e-17  2.1560750408662890e-17  2.1761668306150434e-17  2.0233203875167627e-17  2.1908000526859316e-17  2.0028558689476896e-17  2.0089151571702773e-17  2.2098196749425718e-17  2.0382781776884546e-17  2.2064528928634670e-17  2.2099315780629285e-17  2.2326422197701556e-17  2.1578981089264176e-17  2.2082990540816003e-17  2.2110415366769088e-17  2.2139061827554941e-17  2.1612378106237062e-17  2.1281982728207203e-17  2.1630190729482515e-17  2.2115403372799657e-17  2.2139677821179664e-17  2.1682883546873969e-17  2.2077094620539245e-17  2.1737704651248467e-17  2.1450390468301828e-17  2.1706236666067822e-17  2.1361960544970011e-17  2.1753504823423251e-17  2.2142342150875618e-17  2.2116832750322134e-17  2.2152949528466910e-17  2.2086239009990141e-17  2.2116817011474421e-17  2.1835902565867040e-17  2.1749436900619079e-17  2.1755225932601714e-17  2.1408591390999396e-17  2.1489519302072696e-17  2.1529112929038531e-17  2.2100645981012463e-17  2.2025874666169772e-17  2.2134028011453408e-17  2.1666300458657840e-17  2.1516198821449856e-17  2.1635128252023453e-17  2.1682186151980491e-17  2.1617188294402981e-17  2.1603879297939300e-17  2.1800859922303269e-17  2.1822569895021958e-17  2.1839384815947181e-17  2.2155703218083691e-17  2.1927163796337420e-17  2.1949428178611695e-17  2.1710006072940624e-17  2.2144828382950518e-17  2.1807676949062813e-17  2.1827539796671509e-17  2.2135001622658420e-17  2.2200455552115206e-17  2.2101941937199254e-17  2.2204501738261398e-17  2.2185713971139558e-17  2.2099996719438095e-17  2.2139644088227244e-17  2.2186730889058252e-17  2.2187689884528026e-17  2.0240541418854310e-17  2.0648498808947329e-17  2.2075867716541546e-17  2.2049333995425498e-17  2.0686410922365342e-17  2.0760536312725402e-17  2.2054067932489358e-17  2.2027147671669882e-17  2.2179708476624852e-17  2.2240857532385521e-17  2.2169997448807514e-17  2.2089713526671614e-17  2.2153212090092261e-17  2.2015573078126027e-17  2.1934815883674013e-17  2.2057743293878126e-17  2.2025116117002715e-17  2.2127316281450582e-17  2.2161509542722067e-17  2.2072606325499677e-17  2.1129061148945196e-17  2.1078130639409943e-17  2.1054892066807087e-17  2.1591420070169541e-17  2.2085025571021543e-17  2.1468221918115631e-17  2.2079642725349420e-17  2.2068859384007509e-17  2.2076987592830744e-17  2.1476493803312828e-17  2.2105734971051052e-17  2.2104097053861108e-17  2.1576771287832977e-17  2.1338784612946582e-17  2.1421434444250308e-17  2.1364283159461681e-17  2.2234905616366143e-17  2.2115937832258331e-17  2.2104743484809083e-17  2.1559374583736929e-17  2.2060444922688912e-17  2.2135014879110800e-17  2.1409236625890405e-17  2.1374685029011146e-17  2.0620806856192850e-17  2.0544719596083838e-17  2.0530236465725359e-17  2.0658515638247377e-17  2.0790898871274847e-17  2.1128376754848127e-17  2.2031161835036804e-17  2.2029688398172472e-17  2.2056083006588765e-17  2.1064118472713095e-17  2.2117653737408319e-17  2.2051156532817808e-17  2.1199307115622778e-17  2.1115934390719108e-17  2.2060156521688621e-17  2.2065651477223080e-17  2.1115229718982860e-17  2.2023831790630514e-17  2.2098604039287789e-17  2.1209737786053236e-17  2.2041413401859971e-17  2.1011256117955892e-17  2.0971016639949819e-17  2.2182990358479277e-17  2.1234163567004917e-17  2.2281245729286548e-17  2.2173648450283966e-17  2.1974357987151287e-17  2.0552726663676922e-17  2.0690195330207748e-17  2.0606994124902854e-17  1.9896546241367748e-17  2.0069687968312049e-17  2.0089806281375193e-17  1.9936265330083593e-17  2.0034746455208564e-17  1.9897610266561732e-17  2.0009229495776032e-17  2.1605138603491263e-17  2.0228520127525562e-17  2.1769579732081250e-17  2.1574115594535039e-17  2.0158761301236576e-17  2.0222072861569439e-17  2.0251572827625767e-17  2.0111717373672407e-17  2.0232880749925347e-17  2.1976246739985229e-17  2.0436686935569247e-17  2.1340795693851441e-17  2.0793922411716155e-17  2.0621777234022687e-17  2.0802226802853490e-17  2.2099321084362019e-17  2.1451654830274105e-17  2.2073670340430599e-17  2.1456436815580669e-17  2.2098548126716152e-17  2.1581810031911246e-17  2.1516728625749005e-17  2.1525283515604277e-17  2.0911007195810345e-17  2.0902730432302537e-17  2.1057558264621378e-17  2.2088960578925045e-17  2.1208362132564053e-17  2.1217671832178824e-17  2.1327188828962404e-17  2.1356994097013049e-17  2.1373070882502526e-17  2.1352065250996557e-17  2.0930387686362488e-17  2.0834437525641600e-17  2.0808443161028272e-17  2.0890806639910214e-17  2.2116178431982183e-17  2.2067106060476908e-17  2.1470026583410221e-17  2.1487950866942772e-17  2.0655062590930041e-17  2.1523543746194688e-17  2.1214818755525060e-17  2.1260367839913648e-17  2.1329146133223145e-17  2.1931404476848694e-17  2.2100821046973446e-17  2.1364270120459540e-17  2.1294182626903011e-17  2.2085711067442944e-17  2.1491295106196350e-17  2.0931872084597061e-17  2.0738798930305465e-17  2.0055893002447327e-17  2.0018583582045731e-17  2.1996995133889249e-17  2.0743296782303337e-17  2.2046095521025202e-17  2.0816675960328589e-17  2.0894202480971427e-17  2.0119753959460624e-17  2.2054348593402660e-17  2.0000000000000001e-17  2.0051654527768133e-17  2.0000000000000001e-17  1.9843071627646800e-17  2.0024653828901489e-17  2.0012706956434000e-17  2.0191296664149657e-17  2.0000000000000001e-17  1.9925319903098831e-17  2.0017927026909422e-17  2.0000000000000001e-17  1.9946549177892245e-17  1.9983361135585662e-17  2.0056108451614741e-17  2.0009524378630017e-17  2.0076157755108951e-17  2.0019552463242117e-17  1.9985356620638611e-17  2.0019103453592640e-17  1.9962635124247625e-17  1.9975091299634126e-17  2.0000000000000001e-17  2.0005641638457761e-17  2.0099848118932583e-17  2.0087410293866558e-17  2.0004251346625810e-17  2.0037422068106987e-17  2.0733839739772064e-17  2.0804180403723511e-17  2.0086217197379044e-17  2.0063357039354870e-17  2.0034204874313772e-17  2.0140229096514247e-17  1.9945336617870761e-17  2.1990628010210959e-17  2.0838591244800163e-17  2.2052840999962958e-17  2.0773252182080306e-17  2.0027972360240281e-17  2.1036264158892125e-17  2.1064423469553895e-17  2.0247162302301404e-17  2.0328804200097641e-17  2.0487091630167654e-17  2.0444356827946420e-17  2.2169152791225450e-17  2.2051168660015747e-17  2.2174978512889171e-17  2.1939659933609927e-17  2.2198658045024480e-17  2.2101035535339844e-17  2.2097783467900794e-17  2.2202152432712895e-17  2.2078826104946523e-17  2.2136503701170183e-17  2.2241548580733302e-17  2.1348721458557299e-17  2.0649937677399946e-17  2.1486536198997394e-17  2.2112680662134495e-17  2.2099869953695942e-17  2.2070559972994701e-17  2.1482778253827477e-17  2.2068164527702352e-17  2.1926632186251796e-17  2.2082548012359143e-17  2.0000000000000001e-17  2.0008210164632340e-17  2.0045564921012465e-17  1.9986981818644902e-17  1.9966018599078807e-17  2.0012110622262498e-17  2.0052510983912731e-17  1.9980958326925062e-17  2.0104277509017509e-17  1.9985215928635827e-17  2.0318013283789470e-17  2.0985992766841246e-17  2.0338362541917610e-17  1.9987230194573764e-17  2.0000000000000001e-17  2.0191176111925564e-17  2.0000000000000001e-17  1.9999462878240222e-17  2.0000000000000001e-17  2.0056503859432332e-17  1.9934861133019636e-17  2.0032393643864043e-17  1.9972122616708527e-17  1.9968131069884312e-17  2.0001336316173247e-17  2.0000000000000001e-17  2.0297144547416217e-17  2.0274522646623805e-17  2.1662328037065013e-17  1.9997735958325440e-17  2.0061662783226012e-17  1.9944885164598600e-17  1.9990231530872277e-17  2.0088818130390956e-17  2.0000000000000001e-17  2.0000000000000001e-17  2.0396425758595202e-17  1.9858065980752264e-17  1.9975169726799113e-17  2.0164872565978522e-17  2.0160687294386573e-17  2.0213819186115945e-17  2.1154920215263961e-17  2.0000000000000001e-17  2.1690640311206382e-17  2.0602544900456470e-17  2.0979201915778312e-17  2.0660201748443005e-17  2.0113941688789902e-17  2.0254030673707419e-17  2.0244021140774535e-17  2.0212260172880420e-17  1.9981662656364098e-17  2.0394041312107641e-17  2.0088212841470481e-17  2.1373964419822547e-17  2.0000000000000001e-17  1.9959289606724286e-17  1.9978161349883461e-17  2.0108284473926097e-17  2.0136909351554241e-17  2.0019164951637951e-17  2.0033905697952151e-17  2.0000000000000001e-17  2.0103522604529691e-17  2.0056436089680193e-17  2.0033847723179877e-17  2.0231445925537226e-17  2.1549398565508589e-17  2.1595673001528109e-17  2.1233038474542086e-17  2.1068843867068402e-17  2.1112409674907111e-17  2.1133979782560826e-17  2.2107195888923680e-17  2.2087896593071086e-17  2.1560395111915461e-17  2.1649623749991844e-17  2.2102888514791903e-17  2.2137717784022077e-17  2.2090126077512578e-17  2.1497279581573691e-17  2.2073417638596213e-17  2.1578722496010708e-17  2.2156118699513387e-17  2.1703141475878150e-17  2.1708479005834508e-17  2.2085697532511198e-17  2.1984775571369524e-17  2.1455774027985682e-17  2.0000000000000001e-17  2.0000000000000001e-17  2.0168386733973746e-17  1.9853973822425635e-17  1.9966230869681001e-17  2.0198075928864911e-17  2.0046469053257602e-17  1.9939967380052038e-17  2.0000000000000001e-17  2.0051522803706198e-17  2.0204029563513800e-17  2.0368012253783886e-17  2.1087191721688986e-17  2.0712471014770692e-17  2.0995984935609411e-17  2.0221899025340891e-17  2.0168585330696653e-17  2.0119780033186423e-17  2.1378036209617826e-17  2.0053194327253875e-17  2.0038101546182965e-17  2.0014355482239635e-17  2.0073017077249439e-17  2.0067847868194438e-17  2.0000000000000001e-17  2.0038414702340036e-17  2.0048026553670589e-17  2.0044539044175378e-17  2.0080440141368631e-17  2.2059690872205910e-17  2.1117491957779058e-17  2.1105372418663012e-17  2.0299217644950551e-17  2.0316703989441273e-17  2.0186846758006941e-17  2.0186917263952968e-17  2.0285548496621809e-17  2.2065218623021635e-17  2.1143386831760519e-17  2.2074430997861289e-17  2.1188672646783562e-17  2.1252583839578167e-17  2.1339996982476542e-17  2.0396537078771135e-17  2.0437470553030847e-17  2.2062898830124809e-17  2.0710397249644414e-17  2.2006458838308186e-17  2.0782758113643557e-17  2.0757964846177892e-17  2.0826712192712430e-17  2.2044857676936808e-17  2.0864975101941687e-17  2.2173811732053960e-17  2.0943339115930329e-17  2.0160343110788505e-17  2.1961289975282038e-17  2.0649947137275217e-17  2.2079576960737451e-17  2.2017653715175712e-17  2.0642687834784724e-17  2.0548860655356832e-17  2.2237080302348501e-17  2.0000000000000001e-17  2.0000000000000001e-17  2.0030953653820035e-17  2.0000000000000001e-17  2.0000000000000001e-17  2.0000000000000001e-17  2.0491778893041203e-17  2.0000000000000001e-17  2.0136514190994017e-17  2.0861076455204417e-17  2.1707226305493270e-17  2.1009443471896921e-17  2.0625402055300869e-17  2.0848310345610324e-17  2.0168829682620644e-17  2.0343321812947931e-17  2.0167195152330017e-17  1.9941709508720823e-17  2.0175486831587790e-17  2.0243932541959278e-17  2.0023869050571557e-17  2.0012640110391506e-17  2.0209485774538211e-17  1.9946540579593825e-17  2.0037354422794962e-17  2.0019177962453007e-17  2.0114732540540548e-17  2.0244520601295448e-17  2.1817804658087411e-17  2.1604046994913749e-17  2.1545124889741912e-17  2.1633972585730336e-17  2.2151525366368565e-17  2.1839117667852624e-17  2.1822549068475658e-17  2.2134486400888477e-17  2.2235544256746237e-17  2.2147550769398940e-17  2.2133917758439706e-17  2.2140357042824406e-17  2.1886102625698880e-17  2.2119715633352612e-17  2.2174495113347207e-17  2.2154514161253507e-17  2.1883349963924489e-17  2.2094408829452644e-17  2.1903700365512610e-17  2.2159005580001928e-17  2.2058872475809356e-17  2.2096671717436041e-17  2.1697872342146453e-17  2.1704957574027541e-17  2.1681470281680479e-17  2.2123973363305101e-17  2.0175519637960335e-17  2.0000000000000001e-17  2.0000000000000001e-17  2.0034797659911668e-17  2.0191276008486172e-17  1.9909729627255385e-17  2.0008768424029566e-17  2.0052899715590393e-17  2.0209423637437590e-17  2.1081129301858098e-17  2.0129986326122513e-17  2.0723470929105708e-17  2.0230783538774766e-17  2.0064889297456567e-17  1.9935337323388133e-17  2.0089149058246326e-17  2.0047326351492676e-17  2.0000000000000001e-17  2.0050760384833293e-17  2.0152369967171122e-17  2.0000000000000001e-17  2.0000000000000001e-17  1.9895421369023089e-17  2.0000000000000001e-17  2.0000000000000001e-17  1.9875145681157591e-17  1.9966365551768476e-17  2.0044702919301646e-17  2.0000000000000001e-17  2.0034826095267518e-17  2.0000000000000001e-17  2.0000000000000001e-17  2.0000000000000001e-17  2.0000000000000001e-17  2.0030055223793878e-17  1.9984288557496077e-17  2.0805074778341547e-17  2.0728777464058118e-17  2.0064248933167400e-17  2.0146171087622493e-17  2.1988949421726252e-17  2.0836557330032893e-17  2.0773085778595389e-17  2.2052021602174784e-17  2.0029529503045419e-17  2.1972555737831442e-17  2.0556296846208425e-17  1.9996143055632976e-17  2.1931836496520625e-17  2.0684922571962439e-17  2.0493666467682066e-17  2.1949342243364100e-17  2.2025197826699853e-17  2.1938820920331489e-17  2.1997336189649471e-17  2.1878532992656263e-17  2.1019715757301014e-17  2.1108487490791134e-17  2.0133132260116018e-17  2.0214823635883699e-17  2.2039129606195388e-17  2.2058685945676251e-17  2.0930446099940243e-17  2.1104871403292642e-17  2.1166879009142633e-17  2.2080056674039513e-17  2.2051195941296161e-17  2.2050634848677905e-17  2.1942263751192620e-17  2.0000000000000001e-17  2.0000000000000001e-17  2.1928397266720551e-17  2.1859978547860334e-17  2.2109218421818964e-17  2.2109492147995996e-17  2.1266393838915561e-17  2.1325408872793710e-17  2.1512845462078230e-17  2.1601077978026245e-17  2.0942717868262964e-17  2.1083195818922536e-17  2.0442583625569178e-17  2.0549091082214992e-17  2.0584342419457404e-17  2.0504930453295380e-17  2.0552225348199896e-17  2.1840839259134585e-17  2.1187218241704721e-17  2.1946156070665643e-17  2.1189882365241192e-17  2.1979463961405009e-17  2.1353949681290563e-17  2.1728606382897078e-17  2.1955223730816715e-17  2.1877858232436342e-17  2.1046581975829308e-17  2.1920734641167137e-17  2.1666440593035796e-17  2.1362221087792949e-17  2.1387192230745205e-17  2.1601988339312824e-17  2.1566842259383566e-17  2.0175373154321159e-17  2.0162190519596545e-17  2.0215442894604113e-17  2.0233022971219328e-17  2.0206440794502203e-17  2.0378576124912272e-17  2.0182962756468780e-17  2.0146413495619759e-17  1.9986173147215045e-17  1.9938323695328870e-17  2.0022400457879468e-17  2.0130027342257023e-17  2.1116965287964604e-17  2.0439232549844172e-17  2.0514755077006799e-17  2.0566523796324681e-17  2.0440161101462826e-17  2.1200067744443742e-17  2.0431997684004429e-17  2.1566617332519391e-17  2.0044158957080429e-17  2.0107450208610937e-17  2.0063920972020537e-17  2.0023238898786614e-17  2.0214490419253556e-17  2.0079565614954466e-17  2.0165493227369189e-17  2.0162431695148663e-17  2.0221679847469086e-17  2.0240499351921442e-17  2.0187285872244908e-17  2.0006604011012360e-17  1.9943905791616905e-17  2.0028894099739471e-17  1.9978415005988344e-17  1.9906843576188854e-17  2.0061398271960211e-17  1.9987888174436745e-17  2.0007036026642063e-17  1.9994358153817881e-17  2.0024133756823097e-17  1.9958787441481252e-17  2.0032177823167909e-17  1.9965071981397677e-17  1.9910417998899372e-17  2.0133201107574713e-17  1.9909640522685326e-17  2.0261031899045671e-17  2.0035640115324534e-17  2.0068716399227768e-17  1.9978077338676704e-17  2.0009435913487432e-17  2.2167708458900898e-17  2.2054797417385153e-17  2.0860346110597417e-17  2.2089895916872038e-17  2.1973143248666606e-17  2.2217517791538182e-17  2.0000000000000001e-17  2.0000000000000001e-17  2.0000000000000001e-17  2.0144392952473350e-17  2.0116994316268014e-17  2.0000000000000001e-17  2.0030787639673464e-17  2.0123290773830812e-17  2.0073426869867345e-17  2.0000000000000001e-17  2.0000000000000001e-17  2.0000000000000001e-17  2.0000000000000001e-17  2.0009370782241120e-17  2.0000000000000001e-17  1.9995159969502869e-17  2.0907877653811416e-17  2.0491277146146829e-17  2.0564629892683677e-17  2.0394517438261472e-17  2.0180111696157668e-17  2.1083002911263928e-17  2.0592888638321701e-17  2.0530750396218688e-17  2.1858925959926541e-17  2.1180898091097179e-17  2.1947102117728592e-17  2.1178569679756623e-17  2.1595405694147822e-17  2.1382620444238768e-17  2.0168279038106632e-17  2.0241364593920846e-17  2.0163591931698091e-17  2.0559859522634507e-17  2.0016153793640441e-17  2.1934493992570283e-17  2.0681407137093024e-17  2.1948501936113359e-17  2.2026645721953631e-17  1.9951700767004563e-17  2.0000000000000001e-17  2.0000000000000001e-17  1.9839564296586616e-17  2.0194250162811228e-17  1.9873755969026677e-17  2.0149180396048435e-17  1.9921102130750993e-17  2.0088883783615506e-17  2.0000000000000001e-17  2.0035637405570349e-17  2.0218806764383971e-17  2.0399712223361868e-17  2.1107119186140198e-17  2.0573773664415429e-17  2.0044544051351827e-17  2.1437782341477182e-17  2.0088934147999069e-17  2.0000000000000001e-17  2.1884053298280645e-17  2.1334328588347579e-17  2.2013050100226401e-17  2.0465569879555471e-17  2.0970428432426973e-17  2.0929198049269154e-17  2.1913292509049110e-17  2.1905306108498247e-17  2.1653322116461545e-17  2.1359395567247029e-17  2.0193406838700175e-17  2.0248150638905808e-17  2.0274641557705664e-17  1.9967166897459020e-17  2.0484092216936