<?xml version="1.0"?>
<VTKFile type="UnstructuredGrid"  version="0.1"  >
<UnstructuredGrid>
<Piece  NumberOfPoints="4588" NumberOfCells="21122">
<Points>
<DataArray  type="Float64"  NumberOfComponents="3"  format="ascii">-34.858626 35.655632 25.486311  -32.349835 34.139233 24.4185865  -33.031008 32.8246515 25.2604255  -33.6806715 33.324787 23.731205  -32.502717 30.993942 21.976099  -31.1718805 31.808388 22.6634805  -31.8530535 30.4938065 23.5053195  -31.20339 29.993671 25.03454  -30.522217 31.3082525 24.192701  -29.841044 32.622834 23.350862  -38.687953 17.204366 36.650404  -37.13843375 17.40429525 35.85537775  -37.75678575000001 17.15725725 35.34602675  -36.22487 16.09134 35.1759575  -33.761787 14.978314 33.701511  -34.67535075 16.29126925 34.38093125  -35.29370275 16.04423125 33.87158025  -36.8256185 17.1101485 34.0416495  -36.2072665 17.3571865 34.5510005  -35.5889145 17.6042245 35.0603515  -34.963284 17.015931 31.432895  -35.27609925 17.31007775 33.24662325  -33.72658 17.510007 32.451597  -34.3625355 15.9971225 32.567203  -34.03939525 17.80415375 34.26532525  -33.1258315 16.4911985 33.585905  -32.489876 18.004083 33.470299  -35.89445125 17.06303975 32.73727225  -36.53013475 18.94899975 35.69649225  -37.14848675 18.70196175 35.18714125  -38.079654 18.7490705 36.4915185  -37.471355 20.293775 36.332633  -36.84433725 19.474314 35.1076985  -34.9806155 19.148929 34.901466  -34.35359775000001 18.329468 33.6765315  -35.903117 18.12953875 34.47155775  -36.2173195 18.654853 33.882764  -36.521469 17.88250075 33.96220675  -35.59030175 17.835392 32.6578295  -35.87655225 17.73871575 36.95116874999999  -36.8177725 19.083491 37.5873095  -37.4260715 17.5387865 37.746195  -36.16419 17.873207 38.841986  -34.327033 17.938645 36.1561425  -34.96298849999999 16.4257605 36.2717485  -37.420999 30.204459 28.694242  -35.894885 31.11056475 26.675129  -34.3428875 30.106441 26.844291  -36.511327 29.74586625 27.4044175  -36.804557 31.5691575 27.9649535  -34.9593295 28.7417425 27.5735795  -36.188115 32.933856 27.235665  -32.49766 27.279026 26.452917  -34.0496575 28.28314975 26.283755  -35.601655 29.2872735 26.114593  -34.985213 30.651972 25.3853045  -33.782311 28.370088 23.534944  -34.691983 28.82868075 24.8247685  -33.1399855 27.824557 24.9939305  -33.6957525 31.4637635 26.1351025  -32.4928505 29.1818795 24.284742  -31.850525 28.6363485 25.7437285  -44.097547 25.2775 23.504347  -42.758649 25.0521095 22.65863425  -42.75085575 24.215963 23.53988875  -43.246992 24.18972075 22.665477  -42.396437 23.1019415 21.826607  -41.41195775 23.9905725 22.694176  -41.908094 23.96433025 21.81976425  -41.90030075 23.12818375 22.70101875  -41.4041645 23.154426 23.5754305  -41.419751 24.826719 21.8129215  -40.695327 20.926383 20.148867  -39.71084775 21.815014 21.016436  -40.206984 21.78877175 20.14202425  -41.04974575 22.0404045 21.86214875  -40.0652665 22.9290355 22.72971775  -40.56140275 22.90279325 21.855306  -39.718641 22.6511605 20.1351815  -39.22250475 22.67740275 21.00959325  -38.7263685 22.703645 21.884005  -40.19919075 20.95262525 21.02327875  -40.5536095 22.06664675 22.7365605  -39.7030545 20.9788675 21.8976905  -39.2147115 21.84125625 21.89084775  -41.545882 22.01416225 20.987737  -41.057539 22.876551 20.98089425  -38.710782 21.031352 23.646514  -38.71857525 21.8674985 22.7652595  -39.20691825 21.00510975 22.77210225  -40.05747325 22.092889 23.61097225  -38.741955 24.375938 20.121496  -38.73416175 23.5397915 21.0027505  -39.230298 23.51354925 20.12833875  -40.07305975 23.765182 21.84846325  -40.569196 23.73893975 20.9740515  -40.080853 24.6013285 20.96720875  -33.574319 29.476076 33.762791  -30.974186 28.293842 32.372311  -31.703485 29.085527 30.9046905  -32.364835 27.673696 31.5444365  -31.155351 25.871316 29.326082  -29.103352 27.903293 29.5142105  -29.764702 26.491462 30.1539565  -30.494001 27.283147 28.686336  -29.832651 28.694978 28.04659  -28.374053 27.111608 30.981831  -33.548927 34.215442 28.978837  -30.3081805 34.184152 26.8291535  -30.995052 32.8346895 27.7346935  -31.6949855 33.419138 26.1648495  -32.8620555 35.5649045 28.073297  -32.175184 36.914367 27.167757  -31.008114 34.7686005 25.2593095  -29.1411105 32.0383855 24.920706  -28.441177 31.453937 26.49055  -33.516905 36.2849995 26.327034  -34.2037765 34.935537 27.232574  -32.19458 21.416885 40.507111  -30.3161035 18.91314 39.1084825  -30.9974425 20.1594475 37.964116  -31.684586 18.5605625 38.1873465  -32.8817235 19.818 40.7303415  -29.800305 18.90201 35.421121  -29.118966 17.6557025 36.5654875  -47.378445 14.923355 25.856845  -45.70754775 14.6592615 25.77442175  -46.122614 14.80218775 24.96919225  -46.12137825 13.90937475 25.456674  -44.8643115 12.8953945 25.056503  -44.450481 13.64528125 25.37425075  -44.86554725 13.7882075 24.56902125  -44.866783 14.6810205 24.0815395  -44.45171675 14.53809425 24.886769  -44.0366505 14.395168 25.6919985  -42.350178 10.867434 24.256161  -41.9363475 11.61732075 24.57390875  -42.35141375 11.760247 23.76867925  -43.19341425 12.631301 24.97407975  -42.77958375 13.38118775 25.2918275  -43.19465 13.524114 24.486598  -42.3526495 12.65306 23.2811975  -41.93758325 12.51013375 24.086427  -41.522517 12.3672075 24.8916565  -43.60724475 11.88141425 24.656332  -43.6084805 12.77422725 24.16885025  -42.355121 14.438686 22.306234  -41.94005475 14.29575975 23.1114635  -42.35388525 13.545873 22.79371575  -43.19588575 14.416927 23.99911625  -42.7808195 14.27400075 24.80434575  -41.938819 13.40294675 23.59894525  -41.5249885 14.1528335 23.916693  -43.60971625 13.66704025 23.6813685  -43.610952 14.55985325 23.19388675  -40.694856 13.866981 25.527152  -41.10992225 14.00990725 24.7219225  -41.52375275 13.2600205 24.40417475  -42.36575325 14.1310745 25.60957525  -41.1086865 13.11709425 25.20940425  -43.219948 24.174891 26.14595  -41.54204075 23.80403475 25.99405425  -41.8161875 23.0805855 26.21347775  -42.0926565 23.38900625 25.521091  -40.96536500000001 22.6031215 24.896232  -40.41474925 23.01815 25.36919525  -40.688896 22.29470075 25.58861875  -40.412427 21.98628 26.2810055  -40.13828025 22.70972925 26.061582  -39.8641335 23.4331785 25.8421585  -42.943479 23.86647025 26.83833675  -41.26557175000001 23.495614 26.686441  -41.53971850000001 22.77216475 26.9058645  -42.66701 23.5580495 27.5307235  -42.66933225 24.5899195 26.61891325  -40.99142500000001 24.21906325 26.4670175  -42.39286325 24.28149875 27.3113  -42.1187165 25.004948 27.0918765  -42.114072 22.941208 28.915497  -41.83992525 23.66465725 28.6960735  -42.11639425 23.973078 28.00368675  -40.98910275 23.18719325 27.37882775  -40.714956 23.9106425 27.15940425  -41.8422475 24.69652725 27.78426325  -41.5657785 24.3881065 28.47665  -42.390541 23.24962875 28.22311025  -41.2632495 22.463744 27.59825125  -41.017485 25.835005 28.037803  -41.29163175 25.11155575 28.2572265  -41.56810075 25.4199765 27.56483975  -40.44080925 24.63409175 26.93998075  -39.28745775 22.23226525 24.74433625  -39.5616045 21.508816 24.96375975  -39.83807350000001 21.81723675 24.271373  -50.189691 15.482804 19.423637  -48.562051 14.554389 19.9364865  -48.58665475000001 15.27305275 19.37062825  -48.88429825 14.582778 19.15486775  -47.5789055 13.682752 18.8860985  -46.95901475 14.34463775 19.88347775  -47.25665825 13.654363 19.66771725  -47.28126200000001 14.37302675 19.101859  -46.98361850000001 15.0633015 19.3176195  -46.934411 13.625974 20.449336  -49.86744375000001 15.454415 20.20525575  -49.5451965 15.426026 20.9868745  -48.23980375 14.526 20.71810525  -48.2644075 15.24466375 20.152247  -48.900702 15.369248 22.550112  -47.619913 15.18788575 21.7154845  -47.9175565 14.497611 21.499724  -47.94216025 15.21627475 20.93386575  -46.66137125 15.0349125 20.09923825  -46.6367675 14.31624875 20.6650965  -46.339124 15.0065235 20.880857  -49.22294925 15.397637 21.76849325  -44.96812 11.8827 18.34856  -44.6704765 12.57297475 18.5643205  -45.9512655 12.754337 19.398948  -45.97586925 13.47300075 18.83308975  -45.67822575 14.1632755 19.04885025  -45.653622 13.44461175 19.6147085  -44.372833 13.2632495 18.780081  -46.27351275 12.782726 18.61732925  -43.777546 14.643799 19.211602  -44.0751895 13.95352425 18.9958415  -45.3559785 14.1348865 19.830469  -45.38058225 14.85355025 19.26461075  -45.058335 14.82516125 20.0462295  -39.872047 28.655316 26.927546  -37.12237 29.39100675 26.93230625  -38.347894 28.61643525 26.04895825  -38.03545325 28.30502325 26.84157575  -38.646523 29.4298875 27.810894  -36.80992925 29.07959475 27.72492375  -36.1988595 27.9547305 26.7556055  -36.51130025 28.2661425 25.962988  -36.823741 28.5775545 25.1703705  -38.95896375 29.7412995 27.0182765  -37.73343975 30.515871 27.9016245  -38.0458805 30.827283 27.109007  -37.43481075 29.70241875 26.13968875  -38.64821525000001 27.9177375 26.39990175  -36.8116215 27.56744475 26.3139315  -37.4243835 27.180159 25.8722575  -37.12406225 27.87885675 25.521314  -39.57172575 29.35401375 26.5766025  -38.6586425 30.43999725 26.667333  -39.2714045 30.0527115 26.225659  -38.04757275 29.315133 25.69801475  -38.670762 31.450107 25.523772  -37.7472515 30.01383075 25.34707125  -38.97108325000001 30.75140925 25.8747155  -38.35832125 31.138695 26.3163895  -34.97672 25.705002 24.816969  -35.9002305 27.14127825 24.99366975  -36.20055175 26.4425805 25.34461325  -35.58778975 26.82986625 25.78628725  -50.188094 20.522143 13.999888  -48.586237 20.3299705 13.97351625  -48.8837015 20.0879915 13.29226675  -48.88303225 19.60784125 13.97722375  -47.5779705 18.6935395 13.9545595  -47.28117525 19.41566875 13.950852  -47.57863974999999 19.17368975 13.2696025  -47.57930899999999 19.65384 12.5846455  -47.2818445 19.895819 13.265895  -46.98438 20.137798 13.9471445  -44.967847 16.864936 13.909231  -44.67105175 17.58706525 13.9055235  -44.96851624999999 17.34508625 13.224274  -45.9761135 18.501367 13.92818775  -45.67931825 19.22349625 13.92448025  -45.97678275 18.98151725 13.24323075  -44.96918549999999 17.8252365 12.539317  -44.671721 18.0672155 13.2205665  -44.3742565 18.3091945 13.901816  -46.27290875 17.77923775 13.93189525  -46.273578 
[...]
<PointData  Scalars="c_HbO2"> 
<DataArray  type="Float64"  Name="c_HbO2"  format="ascii">2.2203487617169920e-17  2.2132174970328820e-17  2.2104907865366921e-17  2.2114968737376176e-17  2.2163119106249654e-17  2.2228898713209670e-17  2.2201156330063158e-17  2.2184223482627350e-17  2.2188370818985149e-17  2.2203943889956368e-17  2.2182746892874928e-17  2.2096746587485747e-17  2.2069695022040077e-17  2.2009182892016299e-17  2.2136503701170183e-17  2.2058711998066359e-17  2.2040046157244364e-17  2.1984499805879394e-17  2.2009405018816020e-17  2.2054796537070774e-17  2.2100874458696084e-17  2.2069797744111630e-17  2.2287446013482523e-17  2.2166569299270844e-17  2.2052288634803727e-17  2.2193937817812947e-17  2.2166942602174405e-17  2.2006701681988831e-17  2.2122595518614589e-17  2.2073084447868690e-17  2.2168458296630882e-17  2.2190118017619360e-17  2.2091950705634005e-17  2.2082674619299307e-17  2.2092602992439208e-17  2.2018086027244158e-17  2.2014757032230403e-17  2.2004522021935127e-17  2.2035012137618098e-17  2.2097062029449866e-17  2.2197399261906970e-17  2.2186915534367534e-17  2.2200455552115206e-17  2.2097783467900794e-17  2.2078826104946523e-17  2.2189202716508837e-17  2.2142182838934395e-17  2.2065323559586201e-17  2.2120568104067226e-17  2.2195835599996018e-17  2.2083182809760905e-17  2.2199795263802614e-17  2.2161340598927936e-17  2.2070811703650958e-17  2.2060364734132080e-17  2.2068022180239508e-17  2.2145014732436313e-17  2.2061026877056864e-17  2.2186404231437145e-17  2.2109690376316946e-17  2.2244246913021599e-17  2.2201334913053525e-17  2.2126452083218640e-17  2.1736760976675943e-17  2.1723678907966822e-17  2.1704138080466923e-17  2.1223733000039092e-17  2.1459129427164285e-17  2.1327972572540747e-17  2.1322027518004923e-17  2.1438639365807381e-17  2.1444443607291803e-17  2.2082635511506760e-17  2.1945081685608979e-17  2.2081413297442724e-17  2.1604074399385150e-17  2.1708352449951238e-17  2.1672548576079891e-17  2.2100361086257921e-17  2.2032209082607658e-17  2.2118796176500369e-17  2.2014688133895814e-17  2.1653211120764063e-17  2.2103270807237405e-17  2.2095266095749466e-17  2.1462851234491062e-17  2.1515485511363344e-17  2.2135861648541959e-17  2.2125204795892708e-17  2.2114495743827605e-17  2.1679541523761147e-17  2.2128931979780887e-17  2.2152944192886557e-17  2.2139104491085879e-17  2.1668349976486473e-17  2.1601626271135083e-17  2.1631430284778625e-17  2.2203613199227841e-17  2.2165204074967758e-17  2.2169091907247255e-17  2.2141818039956610e-17  2.2186385497384064e-17  2.2207772075022682e-17  2.2216569530184047e-17  2.2187220493850671e-17  2.2203017802128924e-17  2.2208728549188115e-17  2.2204450567195933e-17  2.2148566808687347e-17  2.2164821012304250e-17  2.2169025612667877e-17  2.2228689136188315e-17  2.2208385782248189e-17  2.2163422195389582e-17  2.2209234091931578e-17  2.2208716259414289e-17  2.2198185907347036e-17  2.2202955867932403e-17  2.2205902406277947e-17  2.2149372091067608e-17  2.2162999472870575e-17  2.2167212719598213e-17  2.2227063318432581e-17  2.2201762036179289e-17  2.2210242375512912e-17  2.2048595810059887e-17  2.1426380989831349e-17  2.1417588933113177e-17  2.1372476304627444e-17  2.0523800258402605e-17  2.0619375879386097e-17  2.0545999240846803e-17  2.0531207004744165e-17  2.0667086246044956e-17  2.0801987056706600e-17  2.2060156521688621e-17  2.2028500720632587e-17  2.2034923944516273e-17  2.1128367787485836e-17  2.1196034622920867e-17  2.1066762881865985e-17  2.2058897700697131e-17  2.2115369146467940e-17  2.2055070493179612e-17  2.0931872084597061e-17  2.1120096004395152e-17  2.2062019442099166e-17  2.2064283267839165e-17  2.2026956144094068e-17  2.1115246373182588e-17  2.1213418163283498e-17  2.2093915731829651e-17  2.2044934656065309e-17  2.1010821543529296e-17  2.0970278989557173e-17  2.2084441584683214e-17  2.2191714712559565e-17  2.2277954613775214e-17  2.1218681078845031e-17  2.2173975005955993e-17  2.2110700092471453e-17  2.1801125846471789e-17  2.1824113100186286e-17  2.1851888403427682e-17  2.1529599861254044e-17  2.1605694392474896e-17  2.1550910739262289e-17  2.1607851071326059e-17  2.1637733270989958e-17  2.1686410024510774e-17  2.2141584872050852e-17  2.1842781586306826e-17  2.1825572220853644e-17  2.2135347594620057e-17  2.2229384812184633e-17  2.1842583648769302e-17  2.2148927597777305e-17  2.2153275188940185e-17  2.2139940227745233e-17  2.2120907211557665e-17  2.2143968025903923e-17  2.1886549486123482e-17  2.1887386169327838e-17  2.2150179887103886e-17  2.2175182258187529e-17  2.2091844616759825e-17  2.1904090836391364e-17  2.2165871455690975e-17  2.2097446030713711e-17  2.2072738972898230e-17  2.1947029825325321e-17  2.1809247164397201e-17  2.1701071337857724e-17  2.1677727334073291e-17  2.1987807233692565e-17  2.0756661739053622e-17  2.0694078632968096e-17  2.0566756146655840e-17  1.9907342695811470e-17  2.0066013166046037e-17  2.0027919286991994e-17  2.0044252867016408e-17  1.9938146390485657e-17  1.9944271694471032e-17  2.2005227927595042e-17  2.2052343110043030e-17  2.0761245666911833e-17  2.0826013240182256e-17  2.2036381292697726e-17  2.1056444622036763e-17  2.1041361702117275e-17  2.0902827127434566e-17  2.0130773910014595e-17  2.0066087128940492e-17  2.0097021495472593e-17  2.2055681786896004e-17  2.1529923500982364e-17  2.1748676447791887e-17  2.0248130266695895e-17  2.0240788744432565e-17  2.0207667028368692e-17  2.0330804819658852e-17  2.1915644998481497e-17  1.9936459344701982e-17  2.2025798083774957e-17  2.2097190957460968e-17  2.0465985976142196e-17  2.0384923846792212e-17  2.0453632605040204e-17  2.2146916080151117e-17  2.2095967836755118e-17  2.2006392415043512e-17  2.2061776845335864e-17  2.2166432740125426e-17  2.2097504948505422e-17  2.2015673312651315e-17  2.1990346283391207e-17  2.1981951249842991e-17  2.2249780171936577e-17  2.2112673225818759e-17  2.2231022061462498e-17  2.2058156459358249e-17  2.2062479833165531e-17  2.1979198957700930e-17  2.1945276798409061e-17  2.1954037246941999e-17  2.2179880074755012e-17  2.2115226960807099e-17  2.2201013647463001e-17  2.2055802007818886e-17  2.2181823891007952e-17  2.2053321129738123e-17  2.2122806322310759e-17  2.2196623529148954e-17  2.2098612344516632e-17  2.2048218322454013e-17  2.1995258225020682e-17  2.2037973349850963e-17  2.1934316579731941e-17  2.0711745962044638e-17  2.0600031632482074e-17  2.0569753265299034e-17  1.9874880236261742e-17  2.0020233939075455e-17  2.0040779465043492e-17  1.9855882746163567e-17  2.0051865961082399e-17  1.9932883271240479e-17  2.1544606188699946e-17  2.1746300873715526e-17  2.1551313245288874e-17  2.0250526038129390e-17  2.0198955294137617e-17  2.0076926035367307e-17  2.1590360428129308e-17  2.1794813199074176e-17  2.1915727022421912e-17  1.9975524280739961e-17  2.0130683217673111e-17  2.1545213566675951e-17  2.1789385904600471e-17  2.1565217645331558e-17  2.0250540680756970e-17  2.0206565342400468e-17  2.1780566355082574e-17  2.1909299604918338e-17  2.0056320760832874e-17  2.0076734357523373e-17  2.2028589347910688e-17  2.2086550585125390e-17  2.2078188816242042e-17  2.0399177689198994e-17  2.2097472091024459e-17  2.2099381355863865e-17  2.1563314734372155e-17  2.1563710493888285e-17  2.1597292416415977e-17  2.1252747693787307e-17  2.1141057394905171e-17  2.1062659045209583e-17  2.1186449158364242e-17  2.1287248335261469e-17  2.2118127517590859e-17  2.1611249586580696e-17  2.1620704632193954e-17  2.2090958342820673e-17  2.1682074709402083e-17  2.1342119950705554e-17  2.2085215923204525e-17  2.1452250456281607e-17  2.1557107009662020e-17  2.1369061553089477e-17  2.1522379362495651e-17  2.2188832396711148e-17  2.2114610677665521e-17  2.2068991170502789e-17  2.2083044441571621e-17  2.2171332411558812e-17  2.2193649443111156e-17  2.2194438483057329e-17  2.2200060347027327e-17  2.2202801708893981e-17  2.2161457129295398e-17  2.1941237187708889e-17  2.0705912568307938e-17  2.0741227651417093e-17  2.0597860186750405e-17  1.9867460305042686e-17  2.0022370452613476e-17  2.0052965541002710e-17  2.0026366120377994e-17  1.9927174493986024e-17  1.9930967191599312e-17  2.1984946449088893e-17  2.0756830228119100e-17  2.0689063388619820e-17  2.2072724305425605e-17  2.2014769610290637e-17  2.1044173524478598e-17  2.0926236886820876e-17  2.1022977360439515e-17  2.0011661268237725e-17  2.0099193650684248e-17  2.0085392115163320e-17  2.2010486303963304e-17  2.0262119299356278e-17  2.1791303136613824e-17  2.0253561823537786e-17  2.0346110282283538e-17  2.1910838333921899e-17  2.0215121459550810e-17  2.0068533398830221e-17  2.2028445487190656e-17  2.0406676012213493e-17  2.2082157015586038e-17  2.0491169480827435e-17  2.0420517432249750e-17  2.0527019447637740e-17  2.0018912272132636e-17  2.0034601684286672e-17  2.1880178123000376e-17  2.0681233246370953e-17  2.0438190940795911e-17  2.1938583757049700e-17  2.1977566455827519e-17  2.0744258702929138e-17  2.1925659921059304e-17  2.2003362653734676e-17  2.1980067351462633e-17  2.2071870783479924e-17  2.0670125448951653e-17  2.1999834539005149e-17  2.1886851437263515e-17  2.1071473567740251e-17  2.0160336707788160e-17  2.0034304411137013e-17  2.0089850657893105e-17  2.1696915927268641e-17  2.0467392550956166e-17  2.1996745436696715e-17  2.2016358127373199e-17  2.1799766304183031e-17  2.0333611779971309e-17  2.1908196388301223e-17  2.1989720161839652e-17  2.2026113980180800e-17  2.1960828205126669e-17  2.2094450577041983e-17  2.0491817960060679e-17  2.0444058260655663e-17  2.0647953081312367e-17  2.1951720796717244e-17  2.0545760482495049e-17  2.2207319963083220e-17  2.2182035042836116e-17  2.2188718471781069e-17  2.2162247845620148e-17  2.2213243420029806e-17  2.2218945578660923e-17  2.2192878144047453e-17  2.2212150991842282e-17  2.0703401755783525e-17  2.2020635894642815e-17  2.1962441322757210e-17  2.2014616531540427e-17  2.0635421827326547e-17  2.2078369393243176e-17  2.2042661477096749e-17  2.0742087282622847e-17  2.0289812662313489e-17  2.0411930365501203e-17  2.0653877651586407e-17  2.0085763529035585e-17  2.0177420766978207e-17  2.2130908689158263e-17  2.2139127486465012e-17  2.2206437784914827e-17  2.2231945442413460e-17  2.2199127982580928e-17  2.2201374230675865e-17  2.2199758379457167e-17  2.2103969666414153e-17  2.2068974838576447e-17  2.2078546050552676e-17  2.2140316965371051e-17  2.2242714191021974e-17  2.2189651376409917e-17  2.2199083730001267e-17  2.2182532601050953e-17  2.2138098508806192e-17  2.2120690022537302e-17  2.2192538230743223e-17  2.2066504087915408e-17  2.2056517151487202e-17  2.2072060826709714e-17  2.2139959044180285e-17  2.2194238658437760e-17  2.2200368297195831e-17  2.2107408283908759e-17  2.2171532000259833e-17  2.2136059694405736e-17  2.1926201366362049e-17  2.1846248988990857e-17  2.1911044856268268e-17  2.1730798496454129e-17  2.1802484993620193e-17  2.1768827917511970e-17  2.1790123523056743e-17  2.1808550824383259e-17  2.1843021365235672e-17  2.2176923798294949e-17  2.2169098566957914e-17  2.1933504600459624e-17  2.1912184298670733e-17  2.2181349562256176e-17  2.2186314169623673e-17  2.1901830566243935e-17  2.2189555507550638e-17  2.2158077331957621e-17  2.1962157446524219e-17  2.2129236273963444e-17  2.2172044873241916e-17  2.2158358429672570e-17  2.2182036693361868e-17  2.1949922403713009e-17  2.2145732927974237e-17  2.2138715358532072e-17  2.1999576291658539e-17  2.2036191994987095e-17  2.2062409147032842e-17  2.2040391641319907e-17  2.2064478211559811e-17  2.1882693025964768e-17  2.1856306265798094e-17  2.1824737141130972e-17  2.2008422519411617e-17  2.1938611959087145e-17  2.2112229727172511e-17  2.1978286330421509e-17  2.1986089104585430e-17  2.1861128038429821e-17  2.1890781648676328e-17  2.1978617654806570e-17  2.1938519967469250e-17  2.2256473392834714e-17  2.2240886807071550e-17  2.1979897941067208e-17  2.2106830555865075e-17  2.2212640490979053e-17  2.1973227274129972e-17  2.2105197777298656e-17  2.2247831061118371e-17  2.2162684121529740e-17  2.2081281650200474e-17  2.2236524509466271e-17  2.1933868130971707e-17  2.2170841509244667e-17  2.2102188080566376e-17  2.2200724706574007e-17  2.2202943322576102e-17  2.2141843922108183e-17  2.2188380838570811e-17  2.2127127005047653e-17  2.2120829323616520e-17  2.2241689657113959e-17  2.1747401720147826e-17  2.1762017406678857e-17  2.2146024621169048e-17  2.2154884307002161e-17  2.2086357675555819e-17  2.1764203681671922e-17  2.2131022608238295e-17  2.2139106205033392e-17  2.1741470053139708e-17  2.1562263246276001e-17  2.1451556403272656e-17  2.1749853848494471e-17  2.1762569377914124e-17  2.1496684608941703e-17  2.2098500718959148e-17  2.2083859006180839e-17  2.1638253891333203e-17  2.1733882106519571e-17  2.1727285101684602e-17  2.2078796236501259e-17  2.2129692924248552e-17  2.1743281190494041e-17  2.1742951656508093e-17  2.1439369021781375e-17  2.1508955136124997e-17  2.1587074154972799e-17  2.2111465119361106e-17  2.1771315931783110e-17  2.1853574819579413e-17  2.1796202101708379e-17  2.1626326903382508e-17  2.1548412317387624e-17  2.1528826573815002e-17  2.1616115214385613e-17  2.1657580208796393e-17  2.1776089259179727e-17  2.1488531690992279e-17  2.2107534789951622e-17  2.2133579872553254e-17  2.2120421550983984e-17  2.1717439088098219e-17  2.1709171215896212e-17  2.1776696257131071e-17  2.1793655292193525e-17  2.2135648799987791e-17  2.1704759693754410e-17  2.1681210992622654e-17  2.2124605559953567e-17  2.2182021611411601e-17  2.1786801292369462e-17  2.1740386026654090e-17  2.2148552258315910e-17  2.2198621338855096e-17  2.2184038295575706e-17  2.2137945626095593e-17  2.2076976703541075e-17  2.2073626557854020e-17  2.2185779963502754e-17  2.2011121606619894e-17  2.2144564336616104e-17  2.2058132995420797e-17  2.2059133430435304e-17  2.2196341911629516e-17  2.2066795398823925e-17  2.2225591309960228e-17  2.2059850468655146e-17  2.2121714885214146e-17  2.2119404466034905e-17  2.2068320930088686e-17  2.2187731161734580e-17  2.2095809291489888e-17  2.2095107506202342e-17  2.2015732727363862e-17  2.2015570733110907e-17  2.2096981320552196e-17  2.2084883164866265e-17  2.2284306450787225e-17  2.2215368444494764e-17  2.2036528006479500e-17  2.2183900407059969e-17  2.2098520877023405e-17  2.2197482532845049e-17  2.2184967831258591e-17  2.2164815563178223e-17  2.2102906481317549e-17  2.2117632925989807e-17  2.2057468453755614e-17  2.2008969177242792e-17  2.2056397985650420e-17  2.2059690872205910e-17  2.1117491957779058e-17  2.1109873303916437e-17  2.1140529422526140e-17  2.0337387443415731e-17  2.0465921791941643e-17  2.0375007314719361e-17  2.0299820053718543e-17  2.0285548496621809e-17  2.2067540391442833e-17  2.1192279749955327e-17  2.1172787856349278e-17  2.2074868910288489e-17  2.1035695649926606e-17  2.0216603430398104e-17  2.0245460439325830e-17  2.0094659448686249e-17  2.1998858269016129e-17  2.1337189307914221e-17  2.0688676746306244e-17  2.2046207160344533e-17  2.0780927836750710e-17  2.0847526641303017e-17  2.2030640911321240e-17  2.0765621761418019e-17  2.0447880043162396e-17  2.0864975101941687e-17  2.2174747947505628e-17  2.0949077647307682e-17  2.2109717231635577e-17  2.1776834297563801e-17  2.2228205591622983e-17  2.2157304423483358e-17  2.2132989278887184e-17  2.1819206637656384e-17  2.1853984734103977e-17  2.2180453576599953e-17  2.2152712107305145e-17  2.1652971290426110e-17  2.1870173750553908e-17  2.1734935956140838e-17  2.1709216547309795e-17  2.1887781597484504e-17  2.2132864306669106e-17  2.2159569341379253e-17  2.2108838548317084e-17  2.1920674133895316e-17  2.2063674556332815e-17  2.1789795740234076e-17  2.2195077085482173e-17  2.2099117688340772e-17  2.2074769715962503e-17  2.2016976598726126e-17  2.2191992315844380e-17  2.2192351536602096e-17  2.2158885631181249e-17  2.2003482231532443e-17  2.1953473497826472e-17  2.1959219705434635e-17  2.1785681293235848e-17  2.1887347167577768e-17  2.1808314921669716e-17  2.1820370718579987e-17  2.1901002298224221e-17  2.1844735686775718e-17  2.2054191004526765e-17  2.1950776705864888e-17  2.2228665975482154e-17  2.2073017203923914e-17  2.2121574134639410e-17  2.2020621111984061e-17  2.1973171116858998e-17  2.2126930359829577e-17  2.2182007267633279e-17  2.2106302134459585e-17  2.2209542295197319e-17  2.1975432819276871e-17  2.1854120441325020e-17  2.1913664038956441e-17  2.2169651862881974e-17  2.2154063515979293e-17  2.1930754152032017e-17  2.2201760418892961e-17  2.1900094927198610e-17  2.1904965931215020e-17  2.2278546406731213e-17  2.1951028393850934e-17  2.2413298964281891e-17  2.1134053857158469e-17  2.1116574465136645e-17  2.0189323422487918e-17  2.0317507523944617e-17  2.0295695815470977e-17  2.0182669558412890e-17  2.2071635887115591e-17  2.2097702737848615e-17  2.1193726102446634e-17  2.1119457282519157e-17  2.1278339273338870e-17  2.0420646742600000e-17  2.0407363670076639e-17  2.1998384945679976e-17  2.2008149426544159e-17  2.0710702422140598e-17  2.0755733851224121e-17  2.0826948458645733e-17  2.2044910406858131e-17  2.2173100859580182e-17  2.0861588417064942e-17  2.0940282455442596e-17  2.2058724378188807e-17  2.2016610329003708e-17  2.1883213422594413e-17  2.1929032530723237e-17  2.1885188611287928e-17  2.1873743596890929e-17  2.1842054551626272e-17  2.2132191393022823e-17  2.2251322218386271e-17  2.2077214837551025e-17  2.1951798437987828e-17  2.2015938944001699e-17  2.1974865841085961e-17  2.2128000376289451e-17  2.2110661624972204e-17  2.2064129346416797e-17  2.2154288118794433e-17  2.1969017758151342e-17  2.2223197248423667e-17  2.2106959379204246e-17  2.1905162775255788e-17  2.1961922216243767e-17  2.2240417385676981e-17  2.2105884696209152e-17  2.1939540109920989e-17  2.2341633567008782e-17  2.2278253892927811e-17  2.1944300618258118e-17  2.2011297952113493e-17  2.2116817011474421e-17  2.1769557212692039e-17  2.1835902565867040e-17  2.1800859922303269e-17  2.1682186151980491e-17  2.1617188294402981e-17  2.1666709791485192e-17  2.1529112929038531e-17  2.1657108937391936e-17  2.2235544256746237e-17  2.1822569895021958e-17  2.2155703218083691e-17  2.2159005580001928e-17  2.1927163796337420e-17  2.1958486569903939e-17  2.1949428178611695e-17  2.1736878765414879e-17  2.1784827902568933e-17  2.1730475647212127e-17  2.2058872475809356e-17  2.1827539796671509e-17  2.1710006072940624e-17  2.2135001622658420e-17  2.1789286958773143e-17  2.2124828823776835e-17  2.1784654074244367e-17  2.2180520505838181e-17  2.1852645401272608e-17  2.1853878804671365e-17  2.2074606167973168e-17  2.2031546565421832e-17  2.2004542816854006e-17  2.1984041700907857e-17  2.2182087000517616e-17  2.2068605114268378e-17  2.2229825632892335e-17  2.2031245046054678e-17  2.1973557581177608e-17  2.2062558180458866e-17  2.2127085163021172e-17  2.2167343837240697e-17  2.2009957137636353e-17  2.1650581690506602e-17  2.0386796365936278e-17  2.0899434808583202e-17  2.0642700296931080e-17  2.0024835110609545e-17  2.0062451363598330e-17  1.9962487582768455e-17  2.0206675940726780e-17  2.0202762709620291e-17  2.0047133884692029e-17  2.1019021932935653e-17  2.0071736918706608e-17  2.0196633679690821e-17  2.0273127747983989e-17  2.0000000000000001e-17  1.9969281058456900e-17  2.0052250329048292e-17  1.9984007442003602e-17  2.0074822129539951e-17  2.0014290077428826e-17  2.0007664931644160e-17  2.0009751075798610e-17  2.0094314228888789e-17  2.0039371740539981e-17  2.0059998853916973e-17  2.0089881283091054e-17  2.0072951239548250e-17  2.0037322479001742e-17  2.0077138146253640e-17  2.0179731685059705e-17  2.0028708656077660e-17  2.0074676764695091e-17  2.0083345006849340e-17  2.0056546594897928e-17  2.0146027547350601e-17  2.0046059597526773e-17  2.0835193115648661e-17  2.1072903941688883e-17  2.0928437267387142e-17  2.0088757361806338e-17  2.0053085339972700e-17  2.0082702564780636e-17  2.0349886794952397e-17  2.0460342948927011e-17  2.0465824321553536e-17  2.2160057322898044e-17  2.2021392937604077e-17  2.2009743151390290e-17  2.2029279669473857e-17  2.1931190045760611e-17  2.1936728365976665e-17  2.1902672951115595e-17  2.1951370132920524e-17  2.1985993684034025e-17  2.1883159527503