<?xml version="1.0"?>
<VTKFile type="UnstructuredGrid"  version="0.1"  >
<UnstructuredGrid>
<Piece  NumberOfPoints="5242" NumberOfCells="20352">
<Points>
<DataArray  type="Float64"  NumberOfComponents="3"  format="ascii">-25.239911 -24.08747 43.803432  -21.6686365 -22.6669505 42.70525  -22.9306035 -23.425443 45.3622555  -23.73629 -24.612647 44.317103  -24.4342245 -22.900266 44.8485845  -23.628538 -21.713062 45.893737  -22.232669 -25.137824 44.830774  -20.803665 -21.516462 43.7105625  -22.366571 -20.9545695 43.2367315  -22.065632 -22.2749545 46.36756800000001  -21.3676975 -23.9873355 45.8360865  -20.502726 -22.836847 46.841399  -21.104604 -20.196077 40.579726  -22.475967 -23.8875965 41.594702  -24.531781 -25.7608375 43.207807  -23.823651 -27.434205 42.612182  -23.02816 -26.2860145 43.721478  -21.7688895 -25.610771 40.962615  -20.9733985 -24.4625805 42.071911  -19.714128 -23.787337 39.313048  -13.924031 -24.56825 48.358272  -12.071611 -24.519848 45.3729825  -12.3123945 -24.6777375 48.71017399999999  -12.9540105 -26.0306775 47.8250295  -11.98399 -27.493105 47.291787  -10.4599745 -24.6293355 45.7248845  -11.1015905 -25.9822755 44.83974  -11.342374 -26.140165 48.17693149999999  -10.700758 -24.787225 49.062076  -10.219191 -24.471446 42.387693  -19.110931 -26.056109 45.736763  -17.2119455 -26.736463 44.3061645  -16.5475455 -25.057353 43.638716  -17.9864315 -25.4752655 42.843009  -16.861932 -24.894422 39.949255  -16.087446 -26.1556195 41.4124105  -15.423046 -24.4765095 40.744962  -13.98416 -24.058597 41.540669  -14.64856 -25.737707 42.2081175  -15.31296 -27.416817 42.875566  -17.330295 -26.7816635 45.9852645  -15.549659 -27.507218 46.233766  -15.4313095 -27.4620175 44.554666  -14.7669095 -25.7829075 43.88721750000001  -18.605424 -27.428279 45.11094850000001  -18.099917 -28.800449 44.485134  -16.7064385 -28.108633 43.68035  -17.4809245 -26.8474355 42.21719450000001  -18.423523 -23.675553 43.6767535  -17.736115 -21.294997 41.616744  -15.8601375 -22.676797 41.5787065  -17.2990235 -23.0947095 40.7829995  -16.824788 -28.1538335 45.35945  -14.468446 -25.838872 40.222831  -15.907332 -26.2567845 39.427124  -14.952732 -27.619147 38.904993  -15.132846 -27.517982 40.8902795  -16.5263245 -28.209798 41.6950635  -8.736791999999999 -27.313413 48.100374  -6.152974 -25.424928 46.0844805  -7.2758185 -24.5214075 46.405513  -7.735716 -25.7255165 45.6836095  -7.15405 -27.0128245 48.501245  -8.276894499999999 -26.109304 48.8222775  -7.816997 -24.905195 49.544181  -6.6941525 -25.8087155 49.2231485  -5.571308 -26.712236 48.902116  -6.73464 -24.13762 43.266845  -9.902760000000001 -27.201167 44.3684245  -11.524897 -27.429283 43.821256  -10.7851595 -28.7119965 46.8204715  -12.4072965 -28.9401125 46.273303  -12.830603 -30.38712 45.254819  -11.208466 -30.159004 45.8019875  -9.586328999999999 -29.930888 46.349156  -12.974194 -22.8682575 46.01557  -13.9540955 -24.3134235 44.9494705  -14.425332 -22.5687235 45.7087885  -14.926633 -20.569197 43.059305  -13.0042585 -22.613431 42.6067685  -13.475495 -20.868731 43.3660865  -14.4553965 -22.313897 42.299987  -12.024357 -21.168265 43.672868  -20.1199605 -20.061806 44.70221100000001  -21.6828665 -19.4999135 44.22838  -20.4208995 -18.741421 41.5713745  -19.737195 -17.286765 42.563023  -18.6274455 -20.2563415 45.254903  -19.1194205 -22.065922 44.2290715  -18.24468 -17.4813005 43.115715  -18.736655 -19.290881 42.0898835  -17.24414 -19.4854165 42.6425755  -16.752165 -17.675836 43.668407  -19.4203595 -20.745537 41.098235  -13.4073815 -27.2228585 43.397744  -12.984075 -25.775851 44.416228  -12.1016755 -24.2650215 41.964181  -14.736845 -26.037734 47.296019  -13.7668245 -27.5001615 46.7627765  -8.348084999999999 -23.0835965 46.9592925  -8.717699 -24.4624225 46.1644605  -9.789965500000001 -23.0246115 46.71823999999999  -9.258877500000001 -24.84621 49.3031285  -8.879173 -21.261998 44.374404  -7.8069065 -22.699809 43.8206245  -9.718775000000001 -26.050319 48.581225  -8.4769155 -24.304533 42.827269  -9.549182 -22.866722 43.3810485  -9.4779915 -25.8924295 45.2440335  -10.360391 -27.403259 47.6960805  -9.1615605 -28.6221505 47.224765  -8.160484499999999 -27.034254 44.80800050000001  -19.984392 -23.2164105 43.223759  -19.4125295 -24.921723 42.5249055  -18.28803 -24.3408795 39.6311515  -18.7251215 -22.541167 40.464896  -20.2947155 -26.0114945 41.4680445  -21.553986 -26.686738 44.2269075  -20.6718 -25.5969665 45.2837685  -20.875303 -28.235652 43.623041  -19.993117 -27.1458805 44.679902  -18.8686175 -26.565037 41.786148  -19.5267215 -27.683436 40.7419995  -18.946134 -25.4592785 38.587003  -18.17814 -27.13122 37.860958  -17.520036 -26.012821 38.9051065  -17.018782 -23.312653 44.398034  -17.7146795 -21.703022 44.950352  -19.8068285 -24.446478 46.289081  -16.331374 -20.932097 42.3380245  -18.8657615 -23.363507 47.23471050000001  -18.169864 -24.973138 46.68239250000001  -17.228797 -23.890167 47.628022  -16.077715 -22.229682 45.34366350000001  -15.6064785 -23.974382 44.5843455  -8.692553499999999 -28.801179 43.6286045  -7.266709000000001 -25.904545 42.08744900000001  -9.0089845 -26.071458 41.647873  -7.798778 -27.67147 40.908053  -20.409366 -21.991707 39.946387  -16.389228 -25.6986925 46.930894  -15.576414 -24.2292085 47.993147  -14.190131 -28.947169 45.7442925  -18.1390285 -27.9658345 41.173046  -19.48761 -28.5180505 44.0540875  -13.4547855 -27.524217 41.450356  -12.7903855 -25.845107 40.7829075  -13.2746715 -27.625382 39.4650695  -11.596611 -27.631617 40.025146  -15.920365 -30.913824 43.896213  -15.6166625 -29.1653205 43.3858895  -13.758488 -29.2727205 41.9606795  -15.4365485 -29.2664855 41.400603  -15.735012 -29.210521 45.0649895  -17.010141 -29.8571365 44.1906735  -22.227862 -30.633569 41.273558  -21.0478525 -27.174644 40.303225  -20.203001 -28.8823945 39.567258  -21.5515825 -29.4346105 42.4482995  -11.121774 -22.8198555 43.0302805  -10.59147 -28.7812525 43.187151  -9.697694500000001 -27.6515435 40.4665995  -10.907901 -26.0515315 41.2064195  -22.349477 -27.8349285 43.1176115  -12.213607 -29.0093685 42.6399825  -20.003809 -29.655037 43.0502515  -19.132315 -31.074422 42.477462  -18.6552275 -29.102821 40.16921  -18.616116 -29.9374355 43.481298  -20.6800885 -30.8539955 41.87551000000001  -11.3625575 -22.977745 46.367472  -10.451765 -21.2151315 44.023636  -17.0425235 -29.3467845 40.6912275  -16.565436 -27.3751835 38.3829755  -17.52634 -30.994123 43.1868375  -15.839399 -19.1225165 43.363856  -14.0717815 -28.9019685 44.06519249999999  -14.375484 -30.650472 44.575516  -6.38484 -29.432598 47.21182  -4.872836 -26.5724105 45.5691375  -5.279602 -27.9325915 44.7239895  -6.55974 -26.785109 45.2393325  -5.978073999999999 -28.072417 48.056968  -5.454502 -25.2851025 42.751502  -4.174364 -26.432585 42.236159  -3.266579 -26.109534 45.98360700000001  -4.4575305 -25.0442725 46.487207  -4.3803565 -27.7774975 48.398516  -3.189405 -28.842759 47.894916  -3.6818845 -27.637672 45.0655375  -3.7590585 -24.904447 43.1542285  -3.343753 -23.376309 44.072298  -5.0391965 -23.7569645 43.6695715  0.118056 -28.265479 48.343032  -0.6723475 -28.370771 44.7458475  1.169926 -28.713006 44.477795  -0.1879085 -27.009908 45.5985445  -0.366383 -29.626342 47.490335  1.654365 -27.352143 45.330492  -0.850822 -30.987205 46.637638  3.190674 -26.438807 42.317952  1.3484005 -26.096572 42.5860045  -0.493873 -25.754337 42.854057  2.415865 -30.506044 46.899306  2.8032695 -28.4724255 44.608629  1.2669605 -29.3857615 47.621169  0.7825215000000001 -30.7466245 46.768472  0.391337 -30.1212495 43.5762835  2.0246805 -29.880669 43.7071175  2.412085 -27.8470505 41.4164405  1.633496 -29.255294 40.514929  0.5698115 -27.5048155 41.684493  -2.42663 -26.007081 49.535272  -1.4602515 -25.880709 46.1946645  -1.154287 -27.13628 48.939152  -2.8080175 -27.42492 48.715094  -1.841639 -27.298548 45.3744865  -1.5356745 -28.554119 48.118974  3.3654555 -27.1420035 45.3876345  2.978051 -29.175622 47.67831150000001  3.540237 -27.8452 48.457317  1.8291465 -28.0553395 48.40017450000001  -7.560815999999999 -28.3730055 47.656097  6.941905 -27.457441 48.310443  4.227537 -25.7955855 46.0917165  5.0662895 -26.948124 45.3141975  5.928371 -25.601706 46.0182795  5.241071 -27.6513205 48.38388  4.914837 -23.745971 43.726116  4.0527555 -25.092389 43.022034  4.6456015 -28.936185 47.687641  6.3464355 -28.7423055 47.614204  5.750966 -30.02717 46.917965  4.47082 -28.2329885 44.6179585  6.663752000000001 -26.8982645 45.164009  6.0682825 -28.183129 44.46777  6.385599 -26.339088 42.017575  4.7881365 -26.3889475 42.1677635  5.650218000000001 -25.0425295 42.8718455  9.093743999999999 -29.444295 46.758286  7.7396715 -27.8916915 44.3879305  8.5164075 -26.520543 45.05956399999999  8.0178245 -28.450868 47.5343645  7.440488 -25.527116 45.8356425  7.939071 -23.596791 43.360842  7.162335000000001 -24.9679395 42.6892085  10.272132 -26.770447 48.10225  9.105601499999999 -25.183619 45.73154599999999  8.607018499999999 -27.113944 48.2063465  9.682938 -28.107371 47.430268  9.255521 -27.799327 44.159326  9.417298000000001 -26.154359 41.560366  7.901448500000001 -26.2467235 41.7889705  8.6781845 -24.875575 42.460604  9.844715000000001 -26.462403 44.831308  -1.918813 -24.565323 43.4631775  -2.3341185 -26.093461 42.545108  -7.9855845 -29.681743 46.78048800000001  -7.091809 -28.552034 44.05993650000001  -5.986571 -27.0520275 41.57210600000001  7.1365435 -29.181041 43.6379465  8.550743499999999 -29.1174045 43.4227355  8.490615999999999 -30.7336445 46.008302  7.887488 -32.022994 45.258318  7.947615499999999 -30.406754 42.6727515  8.007743 -28.790514 40.087185  7.196671 -27.564801 41.05238  -2.0201135 -29.914982 47.266277  3.89467 -29.4918175 43.828815  5.364838499999999 -29.5493495 43.645975  5.174816 -31.285999 46.1288215  4.598666 -32.544828 45.339678  4.788688499999999 -30.8081785 42.8568315  4.978711 -29.071529 40.373985  4.0846925 -27.755168 41.3459685  6.4330995 -30.5472615 42.8161515  6.243077 -32.283911 45.298998  6.819227 -31.025082 46.08814150000001  -4.7871225 -29.1376785 47.55336800000001  3.116081 -30.900061 42.9273035  3.5072655 -31.5
[...]
<PointData  Scalars="c_HbO2"> 
<DataArray  type="Float64"  Name="c_HbO2"  format="ascii">2.2214752466959213e-17  2.2204215668971872e-17  2.2222643254466366e-17  2.2214255246187144e-17  2.2214707783775452e-17  2.2217398019234381e-17  2.2217840940112073e-17  2.2225744019018700e-17  2.2209797629631085e-17  2.2211350687296917e-17  2.2219802326814447e-17  2.2218263534960879e-17  2.2226913360228305e-17  2.2232502035411370e-17  2.2220772362350671e-17  2.2222116442226160e-17  2.2216741415275538e-17  2.2198852921236297e-17  2.2222142983407880e-17  2.2215755884692607e-17  2.2205527140337337e-17  2.2212606654718198e-17  2.2240658505321100e-17  2.2229046050604700e-17  2.2194023157532642e-17  2.2222831217023598e-17  2.2213519690712786e-17  2.2238718431371813e-17  2.2198117194550718e-17  2.2223843196349506e-17  2.2223204503741061e-17  2.2223245169782904e-17  2.2211351966161076e-17  2.2209332309800879e-17  2.2197090735998595e-17  2.2258360544546914e-17  2.2258652545452316e-17  2.2222657021418818e-17  2.2201891401490424e-17  2.2216030529263234e-17  2.2213089559778156e-17  2.2210199501847289e-17  2.2221728949548646e-17  2.2215459991032203e-17  2.2231376593684206e-17  2.2227062064395798e-17  2.2195195620612945e-17  2.2215193237926329e-17  2.2211079562544221e-17  2.2232091963590120e-17  2.2210667685956959e-17  2.2212095481571899e-17  2.2186209321092704e-17  2.2186660236730252e-17  2.2222940941450003e-17  2.2192666301440391e-17  2.2229805287615655e-17  2.2217096311017746e-17  2.2202792415087849e-17  2.2218600717244063e-17  2.2227782305335162e-17  2.2217346808811914e-17  2.2214253037401449e-17  2.2225443171483947e-17  2.2217762509557324e-17  2.2199460137640140e-17  2.2239510767430122e-17  2.2215631796139629e-17  2.2216677743627137e-17  2.2216907647005650e-17  2.2238395904894648e-17  2.2238428413214299e-17  2.2196924631703136e-17  2.2236371818040695e-17  2.2196441307254790e-17  2.2217368332415561e-17  2.2223766909255980e-17  2.2215314086990408e-17  2.2212164966022189e-17  2.2196391088939244e-17  2.2253268107761856e-17  2.2231686211081234e-17  2.2203856109372643e-17  2.2214976234646975e-17  2.2204328502263455e-17  2.2206702923924122e-17  2.2220882981549147e-17  2.2214855898653256e-17  2.2212949110187394e-17  2.2221402238939423e-17  2.2191071130620133e-17  2.2251457631179360e-17  2.2211402233986225e-17  2.2215870804152781e-17  2.2216962581724451e-17  2.2225413309367634e-17  2.2201410787155611e-17  2.2229794523616048e-17  2.2230883294183206e-17  2.2228938391267417e-17  2.2213183231596840e-17  2.2216417041490211e-17  2.2237383609237634e-17  2.2224497495592722e-17  2.2216874394165856e-17  2.2226062124101828e-17  2.2210784275483830e-17  2.2213585322129286e-17  2.2224209675032944e-17  2.2232481248315584e-17  2.2225777585097035e-17  2.2227310050918781e-17  2.2198725507374137e-17  2.2224652769116796e-17  2.2224900830551196e-17  2.2226620947626451e-17  2.2214874987298974e-17  2.2221086879181720e-17  2.2216882761429466e-17  2.2209763848336048e-17  2.2209182743049226e-17  2.2217840322797372e-17  2.2200597880575312e-17  2.2218508674924900e-17  2.2202008344896917e-17  2.2231067119434232e-17  2.2219530202232716e-17  2.2203845607763568e-17  2.2220213939037733e-17  2.2210462817963159e-17  2.2218792227846136e-17  2.2217005353313537e-17  2.2211852287619382e-17  2.2221160960439833e-17  2.2220151912635442e-17  2.2223808442089582e-17  2.2216281740621133e-17  2.2224452888143394e-17  2.2222178373559347e-17  2.2202601261282355e-17  2.2219271108689247e-17  2.2215962201422840e-17  2.2226058552135927e-17  2.2218316117005436e-17  2.2228267258693403e-17  2.2206208534126845e-17  2.2239887171563855e-17  2.2272230306779124e-17  2.2191649918783326e-17  2.2225342398525423e-17  2.2189725537043263e-17  2.2222050554689029e-17  2.2219317789944285e-17  2.2222879910931909e-17  2.2213419226597076e-17  2.2216584501256290e-17  2.2227182002626785e-17  2.2221244679864925e-17  2.2242251094929430e-17  2.2231458122351793e-17  2.2219888954967130e-17  2.2259246665054500e-17  2.2214481791391682e-17  2.2218862286019645e-17  2.2216688556742337e-17  2.2215788510246069e-17  2.2212578801623269e-17  2.2220327738552200e-17  2.2232314565596084e-17  2.2217798951770774e-17  2.2221516155653794e-17  2.2239230816116088e-17  2.2220024135502494e-17  2.2262747135737445e-17  2.2213025500353785e-17  2.2222384671355089e-17  2.2238118647637152e-17  2.2222670174225718e-17  2.2212268292688091e-17  2.2218637775979012e-17  2.2214755833639881e-17  2.2220473487057602e-17  2.2212791258455484e-17  2.2217288081895921e-17  2.2206575008520069e-17  2.2215407257715565e-17  2.2209312944744314e-17  2.2211100207776136e-17  2.2227243921088076e-17  2.2225723354579273e-17  2.2231051197816584e-17  2.2215333556003529e-17  2.2224289775792648e-17  2.2219879017211853e-17  2.2217158075079314e-17  2.2198481948966487e-17  2.2226874507440210e-17  2.2225055733552600e-17  2.2219583237082829e-17  2.2221000410830272e-17  2.2234227766388537e-17  2.2195863110876963e-17  2.2224098023235260e-17  2.2217785111307138e-17  2.2216572535398778e-17  2.2223696259078730e-17  2.2214691161000609e-17  2.2242705201185084e-17  2.2208929737938845e-17  2.2226455710825749e-17  2.2213770364679655e-17  2.2212339585879942e-17  2.2224841540682472e-17  2.2233126059435380e-17  2.2216821391070658e-17  2.2205897587493774e-17  2.2224202539270025e-17  2.2208735649477147e-17  2.2224790651861605e-17  2.2217811277703048e-17  2.2206899393529195e-17  2.2221099007943128e-17  2.2226712509295028e-17  2.2215644236480763e-17  2.2221689545248064e-17  2.2228032408830066e-17  2.2217529285173889e-17  2.2229861425897265e-17  2.2213372131494454e-17  2.2201778893834577e-17  2.2219876671125347e-17  2.2232002463929550e-17  2.2209838129392793e-17  2.2217918772011998e-17  2.2217769281399122e-17  2.2219231835055560e-17  2.2223790224048277e-17  2.2196610951955511e-17  2.2205371853149834e-17  2.2221589556914022e-17  2.2217958929523006e-17  2.2224669564865090e-17  2.2213453015032502e-17  2.2213481664991246e-17  2.2216774705471261e-17  2.2219490928028902e-17  2.2229835377816199e-17  2.2220691282923547e-17  2.2215786595595255e-17  2.2215814996570340e-17  2.2222346791520120e-17  2.2212441964086024e-17  2.2215941713391712e-17  2.2225776235629443e-17  2.2212233202981079e-17  2.2204475282391488e-17  2.2242644765680630e-17  2.2225553546706045e-17  2.2213347522047374e-17  2.2209709510836105e-17  2.2226969027477688e-17  2.2214770535040705e-17  2.2214097715243308e-17  2.2219046345948908e-17  2.2218415805042059e-17  2.2229355830142630e-17  2.2217593693680267e-17  2.2213136516592280e-17  2.2228607487412797e-17  2.2213149844348648e-17  2.2221999060044209e-17  2.2223935151621316e-17  2.2218445693790261e-17  2.2218753989500648e-17  2.2207435486979424e-17  2.2217517310646577e-17  2.2221475243523928e-17  2.2209163434872361e-17  2.2210278372900390e-17  2.2217437799198624e-17  2.2215139658217098e-17  2.2246707057923482e-17  2.2218587585758747e-17  2.2213381941552354e-17  2.2207657134498615e-17  2.2204020487398523e-17  2.2231961552066662e-17  2.2212837980824190e-17  2.2214615258081570e-17  2.2218300638765421e-17  2.2216027428499309e-17  2.2214603944319926e-17  2.2215699638029828e-17  2.2211838406387776e-17  2.2224473040451502e-17  2.2211775321897865e-17  2.2214991036556037e-17  2.2250130840922991e-17  2.2231628546601650e-17  2.2221647357559891e-17  2.2206461172187599e-17  2.2211275364911853e-17  2.2213912330668772e-17  2.2217254369741578e-17  2.2224518044882908e-17  2.2204103980671301e-17  2.2215245274923698e-17  2.2220819671513309e-17  2.2190176988414164e-17  2.2218437775330253e-17  2.2218236778264940e-17  2.2211227602384074e-17  2.2233005524246516e-17  2.2219491971137178e-17  2.2230446264872767e-17  2.2219964924989014e-17  2.2219901486826594e-17  2.2205675599241054e-17  2.2215232881792727e-17  2.2225627204439935e-17  2.2217199279963036e-17  2.2199945844242170e-17  2.2202784869661803e-17  2.2220279937763357e-17  2.2205448580427496e-17  2.2220557628570071e-17  2.2201100296539780e-17  2.2212407371411287e-17  2.2209155726423319e-17  2.2223781943764072e-17  2.2245516229279380e-17  2.2233325923147479e-17  2.2191549281783615e-17  2.2216613279091439e-17  2.2207521430696480e-17  2.2214402974447363e-17  2.2225347718270240e-17  2.2230380141966566e-17  2.2219387172036733e-17  2.2213389117660120e-17  2.2202131432583117e-17  2.2219769109644222e-17  2.2222453114026226e-17  2.2216010214004711e-17  2.2196282071030733e-17  2.2199731068132150e-17  2.2212717935227595e-17  2.2221996295127039e-17  2.2220952120821293e-17  2.2250459968956574e-17  2.2221178016606642e-17  2.2210742140155579e-17  2.2206503475618371e-17  2.2219494772031674e-17  2.2222243653154043e-17  2.2212923177294439e-17  2.2232681897254337e-17  2.2209942322054170e-17  2.2211335571098066e-17  2.2227326828383122e-17  2.2214709349469559e-17  2.2223543438845621e-17  2.2223929056372793e-17  2.2214300571282271e-17  2.2213266044234115e-17  2.2209967589102527e-17  2.2209539076586918e-17  2.2202892454154392e-17  2.2212933757243422e-17  2.2222810588458376e-17  2.2225224157577537e-17  2.2230849433761898e-17  2.2250401676541023e-17  2.2221082680757165e-17  2.2217877817811752e-17  2.2207821552872488e-17  2.2189949678662311e-17  2.2217735408604060e-17  2.2204423621897830e-17  2.2186434767918845e-17  2.2235114826875378e-17  2.2202771234324575e-17  2.2240263931462239e-17  2.2213885900483184e-17  2.2190529692763489e-17  2.2228467467357328e-17  2.2202973047047042e-17  2.2227946509288315e-17  2.2206085629709469e-17  2.2252637365091295e-17  2.2212888672478792e-17  2.2195076046038886e-17  2.2237069294936842e-17  2.2194555280822566e-17  2.2222214486963588e-17  2.2233821385597152e-17  2.2198709277637952e-17  2.2211073316786161e-17  2.2220426270726169e-17  2.2210501937630684e-17  2.2209316370991552e-17  2.2217784959447984e-17  2.2227679042987937e-17  2.2203195710866979e-17  2.2218803300337910e-17  2.2213242807367227e-17  2.2229419811502315e-17  2.2229971094556470e-17  2.2196423006158566e-17  2.2220702522783132e-17  2.2220802014610693e-17  2.2227081710617609e-17  2.2232784018190112e-17  2.2215702346615726e-17  2.2214978532829072e-17  2.2196558862059752e-17  2.2231091839105815e-17  2.2208616018885449e-17  2.2211341451724722e-17  2.2215549209866022e-17  2.2226804190907335e-17  2.2221202011805651e-17  2.2202051175921480e-17  2.2225023771212462e-17  2.2211603239532628e-17  2.2218635317896837e-17  2.2217179129238298e-17  2.2227361057974717e-17  2.2208113200115291e-17  2.2214233871832701e-17  2.2202229144578458e-17  2.2217475720097104e-17  2.2247167513407883e-17  2.2219775439330031e-17  2.2210616634467483e-17  2.2211928891524061e-17  2.2222770413283986e-17  2.2228864253986088e-17  2.2214758013366470e-17  2.2223193501018099e-17  2.2219571515815092e-17  2.2207701799292204e-17  2.2217364009987431e-17  2.2217802283918261e-17  2.2218672957940907e-17  2.2227103091878933e-17  2.2212716382327120e-17  2.2214941630580140e-17  2.2208153008458433e-17  2.2209955316974918e-17  2.2217986158721958e-17  2.2218733654378229e-17  2.2238352662205342e-17  2.2228342487084377e-17  2.2220825482244387e-17  2.2225273109150888e-17  2.2222996993487050e-17  2.2219963275368460e-17  2.2226983089790759e-17  2.2203323940315105e-17  2.2209321793651265e-17  2.2228401716370266e-17  2.2230390471809391e-17  2.2221221793300652e-17  2.2208956871956736e-17  2.2226930340431362e-17  2.2224201848750908e-17  2.2215013503032239e-17  2.2221834561888864e-17  2.2217132809081526e-17  2.2203627422791144e-17  2.2218684737013033e-17  2.2224098898425559e-17  2.2212256301715670e-17  2.2212697894434036e-17  2.2220658703691858e-17  2.2221521306798368e-17  2.2195627606618810e-17  2.2227210024039041e-17  2.2239424564282097e-17  2.2220786676730157e-17  2.2219063469322430e-17  2.2222425241217895e-17  2.2213750404343104e-17  2.2228033519680358e-17  2.2231839028785827e-17  2.2226872906951834e-17  2.2215551827183440e-17  2.2209151711278627e-17  2.2218781838540847e-17  2.2213852470266330e-17  2.2253830619642789e-17  2.2218563525036632e-17  2.2224513794399151e-17  2.2211799121600086e-17  2.2194516279190753e-17  2.2190283670324387e-17  2.2207289680199680e-17  2.2228817347784774e-17  2.2206216605316878e-17  2.2231774229897009e-17  2.2213470582069960e-17  2.2228823396104473e-17  2.2203875407395450e-17  2.2209563005727282e-17  2.2223677928794911e-17  2.2220333365240839e-17  2.2222236934274720e-17  2.2216836125511404e-17  2.2211761919251490e-17  2.2216488233888888e-17  2.2249337026932595e-17  2.2216111698767489e-17  2.2215935519417986e-17  2.2232354353184108e-17  2.2220447730056760e-17  2.2208242724537883e-17  2.2222101505582356e-17  2.2196275844119925e-17  2.2199363410086587e-17  2.2243104271912613e-17  2.2229296188106719e-17  2.2220591911220680e-17  2.2215577064292895e-17  2.2207088561719956e-17  2.2204090334164751e-17  2.2225166220271355e-17  2.2207224118967482e-17  2.2216424839403173e-17  2.2214167401984257e-17  2.2220236071953984e-17  2.2230383447944230e-17  2.2192303312492847e-17  2.2212940684821250e-17  2.2214919400594318e-17  2.2214008489014448e-17  2.2187718942243058e-17  2.2215861342080242e-17  2.2225757771766587e-17  2.2218250063671199e-17  2.2222118843649016e-17  2.2204534702179745e-17  2.2221163922440119e-17  2.2215099089579482e-17  2.2214189074011976e-17  2.2231253170198734e-17  2.2219213398352488e-17  2.2220836122904396e-17  2.2229965523276836e-17  2.2215055729936302e-17  2.2210765223029940e-17  2.2185448399659513e-17  2.2226188542290334e-17  2.2208930087534909e-17  2.2223369838859627e-17  2.2215038005703937e-17  2.2210279703438664e-17  2.2200443535491093e-17  2.2216846854486650e-17  2.2227213687038499e-17  2.2219352177681119e-17  2.2210751469071901e-17  2.2230093239937981e-17  2.2230681888933678e-17  2.2200503600849154e-17  2.2221496510922030e-17  2.2213133131717256e-17  2.2187715719509953e-17  2.2206530195685111e-17  2.2219744331735821e-17  2.2220493763052580e-17  2.2205213068026663e-17  2.2220633082373895e-17  2.2198023837433125e-17  2.2217660339832696e-17  2.2225747144923354e-17  2.2212413618956261e-17  2.2217348753139374e-17  2.2235220493379479e-17  2.2209245055176052e-17  2.2216099362954966e-17  2.2214930189272058e-17  2.2211240022296457e-17  2.2212829676745272e-17  2.2224436045073298e-17  2.2216469200776249e-17  2.2210761698205763e-17  2.2217688345230943e-17  2.2214405693661079e-17  2.2204835297483691e-17  2.2242431070757760e-17  2.2236207826640425e-17  2.2204395257927354e-17  2.2217676236141544e-17  2.2240804101727778e-17  2.2182841007581374e-17  2.2206755864433635e-17  2.2212473202421028e-17  2.2198815474128490e-17  2.2233633712416083e-17  2.2203920977299144e-17  2.2214776226947433e-17  2.2229136004580193e-17  2.2218123457215750e-17  2.2191735170079957e-17  2.2212595998741798e-17  2.2220792098430858e-17  2.2236780603002166e-17  2.2218130278260301e-17  2.2224373808432420e-17  2.2203052072282955e-17  2.2212942848013980e-17  2.2220155201264810e-17  2.2220425168686156e-17  2.2218670527358593e-17  2.2213707506443156e-17  2.2211276432002188e-17  2.2225315670061626e-17  2.2229380289355277e-17  2.2220251330212749e-17  2.2225767463764041e-17  2.2232639014095112e-17  2.2218091442408255e-17  2.2212368904819234e-17  2.2216007133599188e-17  2.2215717949299625e-17  2.2213448269568751e-17  2.2214396900018140e-17  2.2207870843486650e-17  2.2211579412593441e-17  2.2220029568400416e-17  2.2239114170457225e-17  2.2213503085775006e-17  2.2219890905430430e-17  2.2217889412302895e-17  2.2227281262914857e-17  2.2187943459450255e-17  2.2219237537993327e-17  2.2229027529163530e-17  2.2213625665143799e-17  2.2206993523939412e-17  2.2233885032872847e-17  2.2221034650672052e-17  2.2212332990346611e-17  2.2228650307140814e-17  2.2218500607872165e-17  2.2214076274070489e-17  2.2226055136353555e-17  2.2203944849760480e-17  2.2217218043940030e-17  2.2216114708054628e-17  2.2229969016882595e-17  2.2217269135931471e-17  2.2216269281579952e-17  2.2223256646218023e-17  2.2201647474883129e-17  2.2230813628166033e-17  2.2199351951500062e-17  2.2220758552134816e-17  2.2241227869046203e-17  2.2221537357781014e-17  2.2208801380460591e-17  2.2203115868474214e-17  2.2215168569422212e-17  2.2204498407356268e-17  2.2223700327033055e-17  2.2216242415294981e-17  2.2215884633571433e-17  2.2222797282763002e-17  2.2214105930318813e-17  2.2203620666522277e-17  2.2215787942444571e-17  2.2210024542276165e-17  2.2227356174965721e-17  2.2217459955021467e-17  2.2224499895985467e-17  2.2200283062853964e-17  2.2219565534192460e-17  2.2219152902139000e-17  2.2222577499942532e-17  2.2216793765361071e-17  2.2219357255608006e-17  2.2218639018256988e-17  2.2219723292195726e-17  2.2223446682657018e-17  2.2217801118912255e-17  2.2204600334238658e-17  2.2217547286955501e-17  2.2206110882442278e-17  2.2211874021610680e-17  2.2212134936499207e-17  2.2216215028254247e-17  2.2218291967237083e-17  2.2204086995228056e-17  2.2217153624261665e-17  2.2248651750937809e-17  2.2202533920524012e-17  2.2205953215730014e-17  2.2206028749563333e-17  2.2231140406604173e-17  2.2235467210299215e-17  2.2178230165910923e-17  2.2215539820014453e-17  2.2172994510108609e-17  2.2225327147581820e-17  2.2238651195666217e-17  2.2222834464041669e-17  2.2221800884906631e-17  2.2198804321143925e-17  2.2224381852222464e-17  2.2226803270262516e-17  2.2204118853917359e-17  2.2220533692778982e-17  2.2219488713603844e-17  2.2214702749276698e-17  2.2223604213191968e-17  2.2222101264137036e-17  2.2215981826587239e-17  2.2209303622390810e-17  2.2221969214585545e-17  2.2229326635599054e-17  2.2218647048413888e-17  2.2225393461458439e-17  2.2210581601786399e-17  2.2224650720036789e-17  2.2216375663127536e-17  2.2224061000239479e-17  2.2221025776328301e-17  2.2206829735394906e-17  2.2207934724015275e-17  2.2227501292654350e-17  2.2221419221758658e-17  2.2217781253438998e-17  2.2217576482559639e-17  2.2225116488946693e-17  2.2221349946913859e-17  2.2211840346737457e-17  2.2209966204602319e-17  2.2222992139502089e-17  2.2224142813778349e-17  2.2216251621905636e-17  2.2195483852921519e-17  2.2219124400900804e-17  2.2219931708643114e-17  2.2206881282862930e-17  2.2270274224135346e-17  2.2240429872400246e-17  2.2213336400004907e-17  2.2211081243303817e-17  2.2194159312311045e-17  2.2222334239780267e-17  2.2234221227541772e-17  2.2211834460076391e-17  2.2204605021070233e-17  2.2197924171586570e-17  2.2223489446369655e-17  2.2222942321016755e-17  2.2220822254489819e-17  2.2221727143618799e-17  2.2218364433675205e-17  2.2214135719188620e-17  2.2206874510640938e-17  2.2219711612161595e-17  2.2216175821811146e-17  2.2220562452888152e-17  2.2217325565266637e-17  2.2223286689737730e-17  2.2211024153054097e-17  2.2216371763976203e-17  2.2220178783959848e-17  2.2225678187589347e-17  2.2217613121107802e-17  2.2221788814128147e-17  2.2199843278417049e-17  2.2236135396301459e-17  2.2211125983757745e-17  2.2199232555168024e-17  2.2208804431897256e-17  2.2208637144006160e-17  2.2215133129411672e-17  2.2226560912884029e-17  2.2189658774956231e-17  2.2211033373152856e-17  2.2216043187485239e-17  2.2220769937474072e-17  2.2226270331788403e-17  2.2211661204347012e-17  2.2209235538986628e-17  2.2208461290613728e-17  2.2236058947305039e-17  2.2217812482472244e-17  2.2206806851087312e-17  2.2219593541793812e-17  2.2213013746683568e-17  2.2211636077523852e-17  2.2216601639659822e-17  2.2213372103545747e-17  2.2213108402131741e-17  2.2230882279962243e-17  2.2214431248565085e-17  2.2195828129870358e-17  2.2219921470569317e-17  2.2225325459861362e-17  2.2187923496526142e-17  2.2214871227561489e-17  2.2224234010005423e-17  2.2213195084435477e-17  2.2205220549731637e-17  2.2216559543978059e-17  2.2203664563009905e-17  2.2214884257568955e-17  2.2221565388251733e-17  2.2203807994584807e-17  2.2213095020069233e-17  2.2205800180971837e-17  2.2228822375877724e-17  2.2218716408477549e-17  2.2211356087197975e-17  2.2225491419280948e-17  2.2209669620435495e-17  2.2216228944118841e-17  2.2212683813133927e-17  2.2222135848917762e-17  2.2233189820682020e-17  2.2218146147657871e-17  2.2213997401419910e-17  2.2224519726634228e-17  2.2225894897733024e-17  2.2209790401339178e-17  2.2213198233854