<?xml version="1.0"?>
<VTKFile type="UnstructuredGrid"  version="0.1"  >
<UnstructuredGrid>
<Piece  NumberOfPoints="5132" NumberOfCells="22171">
<Points>
<DataArray  type="Float64"  NumberOfComponents="3"  format="ascii">-30.883759 -5.540195 -46.384261  -27.5935665 -4.6031185 -44.9963395  -28.283989 -2.96158 -44.7082705  -28.9891465 -4.698823 -44.114644  -30.1786015 -3.802952 -46.9778875  -29.488179 -5.4444905 -47.2659565  -29.473444 -2.065709 -47.571514  -28.7830215 -3.7072475 -47.859583  -28.092599 -5.348786 -48.147652  -27.094534 -3.857451 -41.845027  -34.883615 -2.546811 -43.733822  -32.3891285 -3.2972205 -41.8038555  -33.0450485 -1.846558 -41.39152  -33.701049 -3.3269135 -40.7460045  -32.518483 -4.107016 -37.758187  -31.2065625 -4.077323 -38.816038  -31.8624825 -2.6266605 -38.4037025  -31.206482 -1.146305 -39.049218  -30.550562 -2.5969675 -39.4615535  -29.894642 -4.04763 -39.873889  -33.064466 -4.9063235 -41.092735  -34.247032 -4.126221 -44.0805525  -33.610449 -5.705631 -44.427283  -31.7525455 -4.8766305 -42.150586  -41.059 -11.122607 -36.420409  -39.252016 -11.37415475 -36.02388675  -40.18054025 -12.01112325 -37.06426399999999  -40.470527 -11.25262175 -37.0053885  -39.882054 -11.3826365 -37.590368  -38.663543 -11.5041695 -36.60886625  -39.59206725 -12.141138 -37.6492435  -39.3020805 -12.8996395 -37.708119  -38.37355625 -12.262671 -36.66774175  -37.445032 -11.6257025 -35.6273645  -40.76901325 -11.8811085 -36.47928450000001  -40.4790265 -12.63961 -36.53816  -38.96202925 -12.13265625 -36.08276225  -39.8905535 -12.76962475 -37.1231395  -39.840489 -11.24414 -35.43890725  -39.55050225 -12.0026415 -35.49778275  -38.621978 -11.365673 -34.4574055  -38.033505 -11.49568775 -35.042385  -39.899053 -14.156613 -36.655911  -38.6720425 -12.89115775 -36.14163775  -38.97052875 -13.5196445 -35.61553375  -39.2605155 -12.761143 -35.55665825  -37.74351825 -12.25418925 -35.1012605  -38.33199125 -12.1241745 -34.51628100000001  -38.0420045 -12.882676 -34.57515650000001  -39.60056675 -13.52812625 -37.182015  -40.18903975000001 -13.3981115 -36.5970355  -38.705108 -11.642666 -38.760327  -38.07507 -11.63418425 -37.19384574999999  -39.00359425000001 -12.27115275 -38.234223  -39.293581 -11.51265125 -38.1753475  -36.184956 -11.608739 -32.494402  -36.814994 -11.61722075 -34.06088325  -37.11348025 -12.2457075 -33.53477925  -37.403467 -11.487206 -33.47590375  -42.147675 -13.405063 -34.349349  -40.8926335 -12.2593685 -33.83865775  -40.65699524999999 -12.955982 -33.88561224999999  -41.87550625 -12.834449 -34.867114  -41.60333749999999 -12.263835 -35.384879  -40.62046475 -11.6887545 -34.35642275  -40.3848265 -12.385368 -34.40337725  -39.1663155 -12.506901 -33.4218755  -39.40195375 -11.8102875 -33.374921  -39.637592 -11.113674 -33.3279665  -40.348296 -11.1181405 -34.87418775  -40.07612725 -10.5475265 -35.39195275  -39.36542325 -10.54306 -33.8457315  -39.129785 -11.2396735 -33.892686  -38.85761625 -10.6690595 -34.41045099999999  -39.0932545 -9.972446000000001 -34.3634965  -40.11265775 -11.814754 -34.92114225  -38.89414675 -11.936287 -33.9396405  -41.33116875 -11.693221 -35.902644  -37.127509 -8.822285000000001 -32.306584  -38.3825505 -9.9679795 -32.81727525  -36.89187075 -9.518898500000001 -32.3535385  -37.8747435 -10.093979 -33.38199475  -38.14691225 -10.664593 -32.86422975  -37.63910525 -10.7905925 -33.42894925  -36.6562325 -10.215512 -32.400493  -38.11038175 -9.397365500000001 -33.33504025  -37.911274 -11.3612065 -32.91118425000001  -36.42059425 -10.9121255 -32.4474475  -37.67563575 -12.05782 -32.95813875  -43.259332 -10.443417 -33.993606  -41.72637625 -10.038134 -33.5718505  -41.448462 -10.7785455 -33.66078625  -42.709249 -10.6132145 -34.60030675  -42.159166 -10.783012 -35.2070075  -41.17629325 -10.2079315 -34.17855125  -40.898379 -10.948343 -34.267487  -39.91550625 -10.3732625 -33.23903075  -40.1934205 -9.632851 -33.150095  -42.98141775 -11.1838285 -34.08254175  -41.17054775 -11.518957 -33.749722  -42.43133475 -11.353626 -34.6892425  -42.7035035 -11.92424 -34.17147749999999  -42.1534205 -12.0940375 -34.77817825  -41.88125175 -11.5234235 -35.29594325  -42.42558925 -12.6646515 -34.26041325  -40.62621025 -10.377729 -34.785252  -39.6433375 -9.8026485 -33.75679574999999  -41.609083 -10.9528095 -35.81370825  -38.66046475 -9.227568000000002 -32.7283395  -42.1239495 -10.49829525 -32.94182175  -41.84603525 -11.23870675 -33.0307575  -40.3130795 -10.83342375 -32.609002  -40.03516525 -11.57383525 -32.69793775  -40.4327385 -12.0339965 -32.067909  -40.71065275 -11.293585 -31.97897325  -40.988567 -10.5531735 -31.8900375  -40.59099375 -10.09301225 -32.52006625  -41.568121 -11.97911825 -33.11969325  -41.29020675 -12.71952975 -33.208629  -38.717802 -10.66293 -29.786469  -38.32022875 -10.20276875 -30.41649775  -39.45561125 -10.1478905 -31.468282  -39.17769699999999 -10.888302 -31.55721775  -38.78012375 -10.42814075 -32.1872465  -39.058038 -9.68772925 -32.09831075  -37.9226555 -9.7426075 -31.0465265  -39.8531845 -10.60805175 -30.83825325  -39.57527025 -11.34846325 -30.927189  -37.52508225 -9.28244625 -31.67655525  -39.799527 -12.27044875 -32.74489225  -38.0845905 -10.89938225 -30.46345225  -37.451379 -11.1358345 -31.1404355  -37.68701725 -10.439221 -31.093481  -38.5444855 -11.12475425 -32.234201  -38.94205875 -11.5849155 -31.60417225  -38.30884725 -11.82136775 -32.2811555  -37.289444 -9.979059750000001 -31.72350975  -37.05380575 -10.67567325 -31.77046425  -36.8181675 -11.37228675 -31.81741875  -42.160798 -8.135351 -35.94834  -41.59944775 -8.23657925 -36.54582925  -40.3411255 -8.40831275 -35.63539025  -41.32399825 -8.983393250000001 -36.6638465  -40.4871985 -9.831435500000001 -37.37935299999999  -39.77977525 -8.509541 -36.2328795  -40.762648 -9.084621500000001 -37.26133575  -39.50432575 -9.256355000000001 -36.35089675  -38.521453 -8.681274500000001 -35.3224405  -41.0380975 -8.3378075 -37.1433185  -41.8853485 -8.882165000000001 -36.06635725  -41.609899 -9.628979000000001 -36.1843745  -40.065676 -9.155126750000001 -35.7534075  -41.04854874999999 -9.730207250000001 -36.78186375  -40.90247575 -8.3070845 -35.03790100000001  -40.62702625 -9.053898500000001 -35.15591825  -39.6441535 -8.478818 -34.127462  -39.08280325 -8.580046250000001 -34.72495125  -39.7902265 -9.901940750000001 -35.87142475  -40.35157675 -9.800712499999999 -35.2739355  -38.80735375 -9.326860250000001 -34.8429685  -39.368704 -9.225632000000001 -34.24547925  -40.77309925 -10.47702125 -36.89988099999999  -41.3344495 -10.375793 -36.30239175  -39.915397 -8.540264000000001 -38.338297  -40.47674725 -8.43903575 -37.74080775  -39.218425 -8.610769250000001 -36.83036875  -40.20129774999999 -9.185849750000001 -37.858825  -37.82448100000001 -8.751779750000001 -33.81451225  -38.38583125 -8.650551500000001 -33.217023  -40.66898725 -7.7286085 -35.4305655  -39.410665 -7.900342 -34.5201265  -38.84931475 -8.00157025 -35.11761575  -39.1771765 -7.321866 -34.912791  -40.107637 -7.82983675 -36.02805475  -38.9849365 -8.03229325 -37.22303325  -39.54628675 -7.931065 -36.625544  -38.61582625 -7.42309425 -35.51028025  -38.2879645 -8.1027985 -35.715105  -38.054476 -7.5243225 -36.1077695  -38.15234275 -8.0720755 -33.6096875  -36.8940205 -8.243809000000001 -32.6992485  -37.91885425 -7.4935995 -34.002352  -37.5909925 -8.173303750000001 -34.20717675  -36.660532 -7.665333 -33.09191300000001  -36.193555 -6.508381 -33.877242  -37.68536575 -6.9151235 -34.3950165  -36.4270435 -7.086857 -33.4845775  -37.35750400000001 -7.59482775 -34.59984125  -37.1240155 -7.01635175 -34.99250575000001  -39.54003025 -10.6824005 -35.93410274999999  -38.5571575 -10.10732 -34.9056465  -38.0210605 -10.242194 -35.4477965  -38.27125675 -9.461734250000001 -35.3851185  -39.2541295 -10.03681475 -36.41357475  -38.682328 -8.745643250000001 -37.37251875  -38.96822874999999 -9.391229000000001 -36.89304675  -37.73515974999999 -9.596608250000001 -35.9272685  -37.985356 -8.816148500000001 -35.8645905  -37.449259 -8.951022500000001 -36.4067405  -36.59141200000001 -8.957159000000001 -32.848734  -37.57428475 -9.532239500000001 -33.87719025  -37.288384 -8.886653750000001 -34.35666225  -37.03818775 -9.667113500000001 -34.41934025  -36.055315 -9.092033000000001 -33.390884  -34.983121 -9.361781000000001 -34.475184  -35.519218 -9.226907000000001 -33.933034  -36.752287 -9.021527750000001 -34.89881225  -36.50209074999999 -9.801987500000001 -34.96149025  -36.21619 -9.156401750000001 -35.44096225  -37.7518675 -8.2376725 -36.257255  -36.3579235 -8.378683000000001 -33.2413985  -37.0548955 -8.30817775 -34.74932675  -35.8218265 -8.513557 -33.7835485  -35.588338 -7.935081 -34.176213  -36.12443500000001 -7.800207 -33.634063  -35.8909465 -7.221731 -34.02672750000001  -36.821407 -7.72970175 -35.14199125  -36.5187985 -8.44305175 -35.29147675  -35.2857295 -8.648431 -34.3256985  -36.239811 -5.769841 -42.301123  -32.4085845 -6.4013855 -41.4215255  -34.2669635 -7.334079 -43.6380655  -34.92513 -5.737736 -43.364203  -35.5816445 -7.366184000000001 -42.5749855  -33.7232655 -6.4334905 -40.3584455  -34.923478 -8.962527 -42.848848  -33.065099 -8.029833499999999 -40.63230799999999  -31.20672 -7.09714 -38.415768  -29.492242 -8.761414 -46.791509  -26.1745275 -7.710706 -45.4194625  -26.906192 -6.099207 -45.23732800000001  -27.6060135 -7.805521000000001 -44.5592565  -28.7924205 -7.055099999999999 -47.4695805  -28.060756 -8.666599 -47.651715  -27.3609345 -6.960284999999999 -48.3297865  -26.62927 -8.571783999999999 -48.511921  -25.719785 -6.849628 -42.327004  -32.229362 -2.281585 -45.739071  -29.661948 -3.069518 -43.79204900000001  -30.851403 -2.173647 -46.6552925  -31.5565605 -3.91089 -46.061666  -43.271254 -5.266344 -35.15486  -41.58821675 -5.51361275 -34.75335525  -41.73324375 -4.894125750000001 -34.68740825  -42.1365375 -5.44579325 -34.12820075  -41.001821 -5.625242500000001 -33.1015415  -40.45350025 -5.693062 -33.726696  -40.59852725 -5.073575 -33.660749  -40.1952335 -4.5219075 -34.2199565  -40.0502065 -5.141394500000001 -34.2859035  -39.9051795 -5.7608815 -34.3518505  -42.72293325 -5.3341635 -35.7800
[...]
<PointData  Scalars="p_CO2"> 
<DataArray  type="Float64"  Name="p_CO2"  format="ascii">3.9999934610040654e+01  4.0001405380135871e+01  3.9999826470401231e+01  3.9999745293992291e+01  4.0000202959712581e+01  3.9999544267807025e+01  3.9999943561281810e+01  3.9999953338959308e+01  3.9999992942563892e+01  3.9999925680128356e+01  4.0000063306527778e+01  3.9999949523958577e+01  4.0000053632041080e+01  3.9998969168829085e+01  3.9998972925051305e+01  4.0001308814167416e+01  4.0000560039975873e+01  3.9999937621349339e+01  3.9999532664692936e+01  3.9999842918912691e+01  4.0001276868877788e+01  4.0000443289413518e+01  4.0000108361138594e+01  3.9999755433170080e+01  4.0000264756954131e+01  4.0000215868888041e+01  4.0001101317931507e+01  4.0000862436525630e+01  4.0000443719657909e+01  4.0001383262675638e+01  4.0000345637714879e+01  4.0001085684004202e+01  4.0001474991774330e+01  4.0001311064075480e+01  4.0000451517751841e+01  4.0000540774387439e+01  4.0000602518300475e+01  3.9999848598587576e+01  4.0001387938802502e+01  4.0001246306282411e+01  4.0002123483950172e+01  4.0001763828463382e+01  4.0000421077932039e+01  4.0001277266821226e+01  4.0002371848090782e+01  4.0001934502005604e+01  4.0001505335890940e+01  4.0001838863233090e+01  4.0001580413578104e+01  4.0000847676082735e+01  3.9999200385732358e+01  4.0001347087878408e+01  4.0002497928009532e+01  3.9998708713798308e+01  3.9998393991854691e+01  4.0000247207322055e+01  4.0002769002853420e+01  4.0001613804526762e+01  4.0001250799428810e+01  4.0000599847196455e+01  4.0003173343749445e+01  4.0001052681454325e+01  4.0000906871536131e+01  4.0000595968560276e+01  4.0002981826395470e+01  4.0001490265586867e+01  4.0002535368257114e+01  4.0003340231006469e+01  4.0004141380507782e+01  4.0003858424569785e+01  4.0002179413335377e+01  4.0003539804965214e+01  4.0002976501181934e+01  4.0002575340528871e+01  4.0002931737820553e+01  4.0002099307841171e+01  4.0002192496214178e+01  3.9999894845713335e+01  4.0000114921618803e+01  4.0002756295239465e+01  4.0000000696816251e+01  4.0003009090949824e+01  4.0001541273349964e+01  4.0002081897892616e+01  4.0000151309956024e+01  4.0003087041128850e+01  4.0000196150186831e+01  4.0000696997167047e+01  4.0000118118980531e+01  4.0001132029131313e+01  4.0003369750569298e+01  4.0002858811781877e+01  4.0002515519896548e+01  4.0000696878564860e+01  4.0003130886029680e+01  4.0003515050224451e+01  4.0004755010172389e+01  4.0005460779864130e+01  4.0001700122986740e+01  4.0003412795272432e+01  4.0000841833385671e+01  4.0000377363157973e+01  4.0000772684864614e+01  4.0000506637718694e+01  3.9999612311622371e+01  4.0004101628819299e+01  4.0004003778093384e+01  3.9998620113584209e+01  4.0002031467072769e+01  4.0006887104825871e+01  4.0005326235011637e+01  4.0006384727632998e+01  4.0005455960415397e+01  4.0007109549389192e+01  4.0008125057390970e+01  4.0009846053561944e+01  4.0007475383968966e+01  4.0005172160979974e+01  4.0005378403546423e+01  4.0002538252052204e+01  4.0000378999469881e+01  4.0007133331922873e+01  4.0007456352329456e+01  4.0004829689067208e+01  4.0004043031261332e+01  4.0001836451887264e+01  4.0008301071045416e+01  4.0007862157735914e+01  4.0000765584301526e+01  4.0004567221943823e+01  3.9996486029611965e+01  4.0001302647786417e+01  4.0001011893334827e+01  4.0003357516003298e+01  4.0006721009681684e+01  4.0001703412306895e+01  4.0000012563606553e+01  4.0000334259485832e+01  4.0002789797671191e+01  4.0000487673668630e+01  4.0001259460308539e+01  4.0001162318140700e+01  4.0001359984128214e+01  4.0000340147449840e+01  4.0001932237907489e+01  4.0000199673241902e+01  4.0001851942139275e+01  4.0002186376571927e+01  4.0000609842283986e+01  4.0000526752048870e+01  4.0000749261015294e+01  4.0001213445772237e+01  4.0000079102519628e+01  4.0002490963512855e+01  4.0002215878519863e+01  4.0003953619741182e+01  4.0003074314621088e+01  4.0001529360446682e+01  4.0002570699319214e+01  4.0002464071418210e+01  4.0003414483784930e+01  4.0001109313142528e+01  4.0000056376294047e+01  4.0000386037497641e+01  3.9997818604171684e+01  4.0002826140012971e+01  3.9998865059974932e+01  4.0004125096129215e+01  4.0002860153237272e+01  4.0001054204914261e+01  4.0003333111341483e+01  4.0002388180751623e+01  4.0002510375928630e+01  4.0001407635935252e+01  4.0002369131893850e+01  4.0003001080166378e+01  4.0001915686618027e+01  4.0001808346455213e+01  4.0001553851556068e+01  4.0002317371133870e+01  4.0000133202030028e+01  4.0001848146442491e+01  4.0002569902000559e+01  4.0000464242160469e+01  4.0000242606867587e+01  4.0000156215879123e+01  4.0001176004006936e+01  4.0001810675990029e+01  4.0001712399098430e+01  4.0000107645450143e+01  4.0002091767575166e+01  4.0001311152926974e+01  4.0001770169377565e+01  4.0001142070889216e+01  4.0001532404251378e+01  4.0001595791253976e+01  4.0000971249823522e+01  4.0001516054331375e+01  4.0000920917619531e+01  3.9999798361458090e+01  4.0003637121963116e+01  4.0002302988746486e+01  4.0001590743486588e+01  3.9999828633580677e+01  3.9999193220566440e+01  4.0003662810224135e+01  3.9999850380215371e+01  3.9999341734807416e+01  3.9999175485668836e+01  4.0001173468286986e+01  3.9999163013184230e+01  4.0001859790856962e+01  3.9999924991295607e+01  4.0000215395949134e+01  4.0000347837505338e+01  3.9999600970179898e+01  4.0001535064979571e+01  4.0000172447196967e+01  4.0002168124812876e+01  4.0000346377762554e+01  3.9998743942245795e+01  4.0000008093280229e+01  3.9999760149961197e+01  4.0000364103514976e+01  3.9999483137330465e+01  4.0000264067360803e+01  4.0000239884141955e+01  3.9999103515388988e+01  3.9999626620103101e+01  4.0000799515242441e+01  3.9999432183345853e+01  3.9999420646705687e+01  4.0000217556233125e+01  3.9999557767270161e+01  3.9999869449180132e+01  3.9999662636854801e+01  4.0000230296910381e+01  3.9999961061779672e+01  3.9998409090702864e+01  3.9999400189165314e+01  4.0000311857548311e+01  4.0001126085898022e+01  4.0003018989312679e+01  4.0003374125809877e+01  4.0006544714565088e+01  4.0009753897381160e+01  4.0006804968737960e+01  4.0007446228103831e+01  4.0005554171119826e+01  4.0005162643514282e+01  4.0004728714331947e+01  4.0002475665274851e+01  4.0000670523249184e+01  4.0003282113096624e+01  4.0003264269237143e+01  4.0000301876157174e+01  4.0002167959892532e+01  4.0004190651958986e+01  4.0004184224182879e+01  4.0003784540367647e+01  4.0004098222699305e+01  4.0002838804468574e+01  3.9998479637328913e+01  4.0002632685915366e+01  4.0000399930548710e+01  4.0007729352293893e+01  4.0006945996541390e+01  4.0003951154159942e+01  4.0004709206720982e+01  4.0001684452697198e+01  4.0008093520839424e+01  4.0000243477663147e+01  4.0000932146885184e+01  4.0002778114409878e+01  4.0001973670222952e+01  4.0002911859651704e+01  4.0000012156991808e+01  4.0000544628799837e+01  3.9999482321357320e+01  4.0000952092224487e+01  4.0001830925267313e+01  4.0000367118969976e+01  4.0000286593307557e+01  3.9999802742009692e+01  3.9999551276358893e+01  4.0000218098457339e+01  3.9998966361941271e+01  4.0000145815393310e+01  4.0000892896020403e+01  4.0001334235257112e+01  4.0000340278781024e+01  4.0000695763129848e+01  4.0001387458072116e+01  4.0000465367549538e+01  4.0002103766389524e+01  4.0002209142188605e+01  4.0002135115400058e+01  4.0000568678294343e+01  4.0001224812916654e+01  4.0002074175339061e+01  4.0000033213620569e+01  4.0000466305137628e+01  3.9999932811074785e+01  4.0001931556742548e+01  4.0001809917491343e+01  3.9999209343702937e+01  4.0001277131004514e+01  4.0001925862297256e+01  4.0009006170145000e+01  4.0013318460113410e+01  4.0006680152879447e+01  4.0009648070828149e+01  4.0015477611162915e+01  4.0010899470271482e+01  4.0013975611966913e+01  4.0019437592421880e+01  4.0012539950545303e+01  4.0001872160692308e+01  4.0012276862051827e+01  4.0007005287123945e+01  4.0001941077703457e+01  4.0015798410548811e+01  4.0022181635967350e+01  4.0018317855815972e+01  4.0025595454493562e+01  4.0011281551309331e+01  4.0000831820913497e+01  4.0006516289975593e+01  4.0005284083815930e+01  4.0026949570205083e+01  4.0004248441518705e+01  4.0024882685730248e+01  4.0018894958998338e+01  4.0003232851728562e+01  4.0018734791270973e+01  4.0011778438695124e+01  4.0003330279076920e+01  4.0011900208128210e+01  4.0008602794681337e+01  4.0007734408961596e+01  3.9999909522984979e+01  4.0000017759461898e+01  3.9997985044064642e+01  3.9999608937143009e+01  3.9999481586640712e+01  3.9999834497384043e+01  4.0001471133800514e+01  4.0000120983458892e+01  3.9999265400138640e+01  4.0000049084573917e+01  4.0041683778637093e+01  4.0029756247578653e+01  4.0041001640410791e+01  4.0019184647773486e+01  4.0043186206563426e+01  4.0030683867236803e+01  4.0021145353495193e+01  4.0003224650299153e+01  4.0003022441545554e+01  4.0005117680748739e+01  4.0024551396156589e+01  4.0015646256181768e+01  4.0020226336425097e+01  4.0006950704860309e+01  4.0004328049988679e+01  4.0002910283092838e+01  4.0033736416388741e+01  4.0032529494294245e+01  4.0005139248525218e+01  4.0004061500155061e+01  4.0005295630679399e+01  4.0025059136579223e+01  4.0015756227592355e+01  4.0005581336732227e+01  4.0003015051068296e+01  4.0002318871571489e+01  4.0003291545866247e+01  4.0004792224152169e+01  4.0009965692880201e+01  4.0002719128328621e+01  4.0002322015204626e+01  4.0004626419905676e+01  4.0019172798213063e+01  4.0007261484757812e+01  4.0002711050795916e+01  4.0015961533876762e+01  4.0002824773904869e+01  4.0014603955427340e+01  4.0021212700208231e+01  4.0002691296408969e+01  4.0001874986410471e+01  4.0013436081996993e+01  4.0016561805129456e+01  4.0012595114192457e+01  4.0002075446163779e+01  4.0008250008916526e+01  4.0002239637441257e+01  4.0002041878118952e+01  4.0002389696412827e+01  4.0007787850921197e+01  4.0011396799197762e+01  4.0014745718915655e+01  4.0011013587342134e+01  4.0001215923768200e+01  3.9999702909400540e+01  4.0010232922899277e+01  4.0000051894085765e+01  3.9999799570092065e+01  3.9999093299503699e+01  4.0000304318192271e+01  4.0000281256868064e+01  4.0001363077977587e+01  3.9999164811238494e+01  4.0000783569287172e+01  4.0000868080957794e+01  3.9998553691636097e+01  3.9997717416786401e+01  4.0000490764462022e+01  4.0000502152083882e+01  4.0000641059045947e+01  4.0001391862156247e+01  3.9998109229825793e+01  3.9999250312143104e+01  3.9999852984945001e+01  4.0000980385691562e+01  4.0000505635976189e+01  4.0001008483549512e+01  4.0001601189489733e+01  4.0000391413762436e+01  4.0000443439224412e+01  4.0000470146086215e+01  3.9998318654439316e+01  3.9998963197965480e+01  3.9999706496718723e+01  3.9999178500871011e+01  4.0000262348627274e+01  3.9998668635019804e+01  4.0000439308811487e+01  4.0001475107733775e+01  4.0002310696538999e+01  4.0002781746810228e+01  4.0002168629146588e+01  4.0001140933330547e+01  4.0001483561480974e+01  4.0001788901918317e+01  4.0001536460335245e+01  4.0000879755487247e+01  3.9999125634169587e+01  3.9999808583403592e+01  4.0004085605831158e+01  4.0001860552280377e+01  4.0002280457572056e+01  3.9999814309714793e+01  3.9999941062460771e+01  4.0000241657392557e+01  4.0000188849004992e+01  4.0002561316834523e+01  4.0000422316240723e+01  4.0000300149069965e+01  4.0000246011674975e+01  3.9999574462652674e+01  4.0001179435909329e+01  4.0001791912765171e+01  4.0001516703795623e+01  4.0000163468287248e+01  4.0001719222679121e+01  3.9999151143542704e+01  4.0002108536431969e+01  4.0003631341834073e+01  3.9999833089440187e+01  3.9999184140204868e+01  3.9999711753490601e+01  3.9999965910391296e+01  4.0000401461899628e+01  4.0000818609055607e+01  4.0000880464926887e+01  4.0000013813257851e+01  4.0001394627655031e+01  3.9999295656693256e+01  4.0001002660360747e+01  4.0001289939946737e+01  4.0001526416079592e+01  4.0001467120013778e+01  4.0001154675808678e+01  4.0000576853431632e+01  4.0000984150540305e+01  4.0001280865858206e+01  4.0000807089685971e+01  4.0001007112093504e+01  4.0001470171054933e+01  4.0001089044537416e+01  4.0002498882408275e+01  4.0002059811333361e+01  4.0000461545497799e+01  4.0000840721865309e+01  3.9998649765348226e+01  3.9998256122665623e+01  4.0002753392426932e+01  4.0002678383089197e+01  4.0001264997576968e+01  4.0000330905377169e+01  3.9999697628744286e+01  4.0003381183266512e+01  3.9998345300812801e+01  3.9998873733874049e+01  4.0000081200212357e+01  4.0001807383810537e+01  4.0002436838906988e+01  4.0002061607561181e+01  4.0001294192167549e+01  4.0003573214630549e+01  3.9998441787027772e+01  3.9999946578813407e+01  4.0000057541109094e+01  4.0000704140236458e+01  4.0001570184058281e+01  3.9999980564987460e+01  4.0000124533749101e+01  4.0002743672874317e+01  4.0000152282954517e+01  4.0002864279644349e+01  4.0001988482704718e+01  4.0002056574482438e+01  3.9999388675290582e+01  4.0000742259440123e+01  3.9999319327548577e+01  4.0002595386704463e+01  4.0001483316921409e+01  4.0000611737989878e+01  4.0000845176364109e+01  4.0001148853244260e+01  4.0002675101416941e+01  4.0000694488645991e+01  3.9998855238148224e+01  4.0000915387090217e+01  3.9998438923214046e+01  3.9999181766504080e+01  3.9999551242509057e+01  3.9999523818551346e+01  4.0000132121165706e+01  3.9998319490518512e+01  4.0001438532232910e+01  3.9999153540515849e+01  4.0000124561719979e+01  4.0001431219477809e+01  3.9999950816720379e+01  3.9999062255639409e+01  4.0000192248619122e+01  4.0000234274030326e+01  4.0000143595870973e+01  3.9999639532724132e+01  4.0000415328797182e+01  4.0001232642919121e+01  4.0001467449487208e+01  4.0002794059539177e+01  4.0000908222843492e+01  4.0001384504348543e+01  3.9999479450940939e+01  4.0001116044414140e+01  3.9999459188209677e+01  4.0000654622659482e+01  4.0000656850787216e+01  4.0000673763055737e+01  4.0000257719413675e+01  4.0000315379951005e+01  4.0000373485428348e+01  3.9999778948033530e+01  4.0001019973960624e+01  4.0000672872046032e+01  4.0000641703788943e+01  4.0001328596354426e+01  4.0001954873502967e+01  4.0000885232173928e+01  4.0000468724641031e+01  4.0000870422728134e+01  4.0000748552618305e+01  3.9999829134428516e+01  3.9998992066293134e+01  3.9999212725952503e+01  4.0001099498066068e+01  4.0001316961357865e+01  4.0002473406507974e+01  4.0003238681945426e+01  4.0005519949065096e+01  4.0003521438606796e+01  4.0003216129261297e+01  4.0000680550516947e+01  4.0000992941389804e+01  4.0000495635610861e+01  4.0001374698346005e+01  4.0003573305627590e+01  4.0001000479121579e+01  4.0000580486746287e+01  4.0000496578044185e+01  4.0002473755991296e+01  4.0000524928719742e+01  4.0003624990972035e+01  4.0004669905280807e+01  4.0003473049790877e+01  4.0000756850212746e+01  4.0002204207240851e+01  4.0003871817229069e+01  4.0000421021665133e+01  4.0000460130176798e+01  3.9999692630560745e+01  4.0002549783703770e+01  4.0003376976687491e+01  4.0000082788938379e+01  4.0002840279355581e+01  4.0031919730700068e+01  4.0040558546390244e+01  4.0030757091093527e+01  4.0022825103228449e+01  4.0024958741219244e+01  4.0002400101686625e+01  4.0018112067681564e+01  4.0025417949530109e+01  4.0034341933828273e+01  4.0015919099383595e+01  4.0014515049963734e+01  4.0002696698452567e+01  4.0002819176874262e+01  4.0007241352392022e+01  4.0002718787302150e+01  4.0001905741796421e+01  4.0001847762466909e+01  4.0008938842897557e+01  4.0013400452995619e+01  4.0012548417352264e+01  4.0016427699386107e+01  4.0012467275898224e+01  4.0008184962237507e+01  4.0002041125904618e+01  4.0002223996526212e+01  4.0002047223847470e+01  4.0002428256599458e+01  4.0007749655187368e+01  4.0006488012990182e+01  4.0011363598843502e+01  4.0014682348933341e+01  4.0009775515531629e+01  4.0010973868158409e+01  4.0001188329371757e+01  3.9999694543196874e+01  4.0008355374700898e+01  4.0008100145218549e+01  4.0006448643004006e+01  4.0009537910854014e+01  4.0007452952474758e+01  4.0007296164081851e+01  4.0009491789868214e+01  4.0008183157081220e+01  4.0001766399910714e+01  4.0000467395784611e+01  4.0001635900432412e+01  4.0007387173105158e+01  4.0002960465942550e+01  4.0004724336516979e+01  4.0005090585895417e+01  4.0006794723654899e+01  4.0003315072442518e+01  4.0007829766323582e+01  4.0004961825957125e+01  4.0000132477917070e+01  3.9998118569601587e+01  4.0000592330245929e+01  3.9999918812654791e+01  4.0001383154335905e+01  3.9999572187477433e+01  4.0000251658743956e+01  4.0000886453955232e+01  4.0000224871147971e+01  4.0001099523840431e+01  4.0001384085303336e+01  4.0000318169115744e+01  4.0000431378798517e+01  4.0000606490148499e+01  3.9999856798159890e+01  4.0001721234978127e+01  3.9998383555392166e+01  3.9998571967193008e+01  3.9997984611291578e+01  3.9999864125461869e+01  4.0000826614906771e+01  3.9999113212130290e+01  4.0000236508920551e+01  3.9999621865602151e+01  4.0001687351180585e+01  4.0000199027195400e+01  4.0000115347818976e+01  4.0000256625618242e+01  3.9999977809729963e+01  3.9999841181192295e+01  4.0000232340463498e+01  4.0000401763024996e+01  3.9999962534849814e+01  3.9999832834764980e+01  3.9998597610144024e+01  3.9999369094862303e+01  4.0000129618887101e+01  4.0001030837277590e+01  4.0000007486826860e+01  4.0000491977885915e+01  4.0001261253002205e+01  4.0000176920298607e+01  3.9999853542837201e+01  3.9999320545782368e+01  3.9998578582204850e+01  3.9998842404679493e+01  3.9999489835750595e+01  3.9999831822991020e+01  4.0000994972401749e+01  3.9998921486162232e+01  3.9999888564677576e+01  4.0000211005883038e+01  3.9999990597651106e+01  4.0001855769661631e+01  3.9998602939397522e+01  4.0000718578226177e+01  3.9999976463180758e+01  4.0000098811388746e+01  4.0002790757272599e+01  4.0000231717026828e+01  3.9999520624291819e+01  4.0002065362913953e+01  4.0002609154222540e+01  4.0001124236301024e+01  4.0005407352862186e+01  4.0007335092790314e+01  4.0001857171468387e+01  4.0001195103969543e+01  4.0000894207940370e+01  4.0000645643419965e+01  4.0001712578390027e+01  4.0000076879734884e+01  4.0002130420673879e+01  4.0000829948862865e+01  3.9998655865557403e+01  4.0000032140139950e+01  4.0001299719720002e+01  4.0000118396385261e+01  4.0000990648745464e+01  4.0000245953363873e+01  4.0001576079431977e+01  3.9999874210716165e+01  3.9999174915911887e+01  3.9999562138097886e+01  4.0000849905312528e+01  4.0001901844586527e+01  4.0001021913176110e+01  4.0000524384664068e+01  4.0000807921625267e+01  4.0000907545265598e+01  3.9999709620659473e+01  3.9999621851754348e+01  4.0000314115351998e+01  4.0000496731099894e+01  3.9999102333032269e+01  3.9999184561632717e+01  4.0001892904410767e+01  4.0001790011390881e+01  4.0002043582025017e+01  4.0001278327535012e+01  4.0005921463949321e+01  4.0008333687211241e+01  4.0007121198919293e+01  4.0009733249166530e+01  4.0001850041525984e+01  4.0005823033439839e+01  4.0005578736934773e+01  4.0001611744925626e+01  4.0002704181748243e+01  4.0000583545966975e+01  4.0001286983921304e+01  4.0005616067130489e+01  4.0001122775879935e+01  4.0001397795261397e+01  3.9999770058762614e+01  4.0005360873754768e+01  4.0005925735994943e+01  3.9999697524362411e+01  4.0007722252075169e+01  4.0005306691337104e+01  4.0005834859623825e+01  4.0008051820280684e+01  4.0001497271947372e+01  4.0000421711286300e+01  4.0003564480881550e+01  4.0005043673362508e+01  4.0000927711342051e+01  4.0003606820082275e+01  4.0000720813298230e+01  4.0003657187055168e+01  4.0000617568717956e+01  3.9999625512998655e+01  3.9999892758146508e+01  3.9999266393327858e+01  4.0001272976618225e+01  4.0001140229397684e+01  4.0001372864395734e+01  4.0000318070000098e+01  4.0001931642984125e+01  4.0000191462310880e+01  4.0001840219165118e+01  4.0000600022862081e+01  4.0001176548300911e+01  4.0000088584555371e+01  4.0003024489093072e+01  4.0001478262135642e+01  4.0002420420669360e+01  4.0001149757149342e+01  3.9997827932340655e+01  3.9998835522883070e+01  3.9999504674341580e+01  3.9999687117211892e+01  4.0007372659217509e+01  4.0003569145296638e+01  4.0005287854490241e+01  4.0006439999550551e+01  4.0003615993638235e+01  4.0004677019771947e+01  4.0000597726486248e+01  4.0001049782618267e+01  4.0005560872194096e+01  4.0005053250447631e+01  4.0002671868030241e+01  4.0001499619693597e+01  4.0000927307091168e+01  4.0001030891056431e+01  4.000340657146546