<?xml version="1.0"?>
<VTKFile type="UnstructuredGrid"  version="0.1"  >
<UnstructuredGrid>
<Piece  NumberOfPoints="5301" NumberOfCells="20842">
<Points>
<DataArray  type="Float64"  NumberOfComponents="3"  format="ascii">-27.687007 34.995013 -33.834579  -25.2638645 35.1631365 -35.464922  -25.226947 32.973049 -32.9149395  -26.1813695 35.808544 -34.13597  -26.769502 34.3496055 -35.163531  -25.851997 33.704198 -36.492483  -23.7213095 33.78658 -33.2163305  -24.309442 32.3276415 -34.2438915  -24.675732 36.622075 -34.437361  -22.766887 30.951085 -31.9953  -33.51739 39.419286 -21.417386  -30.29324 38.777476 -19.6054935  -31.7008395 37.7815325 -19.3769765  -32.8490585 40.661963 -19.987728  -32.1097905 40.4152295 -21.645903  -32.180727 41.90464 -18.55807  -31.032508 39.0242095 -17.9473185  -31.441459 41.6579065 -20.216245  -30.702191 41.411173 -21.87442  -29.884289 36.143779 -17.336567  -30.66551 37.680538 -27.85325  -28.1570395 35.764741 -27.12132  -28.8853805 36.285004 -25.631648  -29.584892 34.91225799999999 -26.7159865  -28.504274 32.143978 -25.578723  -27.0764215 32.996461 -25.9840565  -27.8047625 33.516724 -24.4943845  -27.105251 34.88947 -23.410046  -26.37691 34.369207 -24.899718  -25.648569 33.848944 -26.38939  -30.2820335 35.3848725 -25.231277  -29.898557 33.089207 -22.609304  -28.501904 33.9893385 -23.009675  -29.2014155 32.6165925 -24.0940135  -25.965979 33.761362 -31.5300435  -26.690352 32.216702 -32.515487  -27.3849115 32.9585815 -31.1505405  -27.082816 30.92215 -28.466502  -24.969324 30.983051 -30.2109515  -25.6638835 31.7249305 -28.846005  -26.3882565 30.1802705 -29.8314485  -25.693697 29.438391 -31.196395  -24.244951 32.527711 -29.225508  -32.079842 38.708854 -24.667962  -29.8877835 39.162518 -26.542383  -29.5925465 36.799162 -24.039004  -30.5949495 39.676676 -24.949739  -31.372676 38.194696 -26.260606  -28.107654 37.766984 -24.320781  -29.110057 40.644498 -25.231516  -27.085982 30.040826 -38.728522  -25.667178 28.869256 -36.2821105  -26.382102 27.18592 -37.0322455  -27.107971 28.1331685 -35.766912  -27.12996 26.225511 -32.805302  -24.963298 26.01435 -34.585834  -25.689167 26.9615985 -33.32050049999999  -25.678222 24.331014 -35.335969  -24.248374 27.697686 -33.835699  -30.2870775 37.1828565 -22.5401385  -30.9891995 35.8990305 -23.638633  -29.196435 34.373033 -21.5108095  -28.494313 35.656859 -20.412315  -27.799782 35.2731645 -21.9111805  -21.9422725 32.359341 -35.7375935  -22.653257 33.282039 -34.434569  -23.5984575 31.4049435 -35.546916  -24.195812 34.6585955 -36.6831605  -22.539627 35.612993 -36.873838  -22.0559025 30.028387 -33.2983245  -21.344918 29.105689 -34.601349  -30.395219 28.109953 -37.708901  -28.026609 28.007589 -39.5027335  -28.7406005 29.0753895 -38.2187115  -27.3876755 37.146796 -26.0025815  -29.167805 38.54233 -28.2241835  -28.3900785 40.02431 -26.9133165  -27.6701 39.404122 -28.595117  -28.4649185 37.8870315 -29.766036  -29.9626235 37.0252395 -29.3951025  -29.259737 36.369941 -30.936955  -27.454153 35.1094425 -28.6631725  -26.6593345 36.626533 -27.4922535  -31.0058515 37.5380725 -20.9148505  -32.373288 36.586476 -20.524852  -31.229186 33.753666 -19.632318  -29.8617495 34.7052625 -20.0223165  -30.5567375 34.9487225 -18.4844425  -29.189301 35.900319 -18.874441  -24.230292 30.194738 -31.5958475  -23.505919 31.739398 -30.610404  -30.608016 33.222258 -33.097295  -28.1712765 33.6460455 -29.7017285  -28.845416 32.072204 -30.7818985  -29.9338765 34.7960995 -32.017125  -29.1475115 34.1086355 -33.465937  -28.473372 35.682477 -32.385767  -26.752344 34.448826 -30.0812315  -28.0461985 28.974834 -34.366191  -29.678828 29.917055 -36.81799049999999  -28.962437 31.724157 -35.92708  -28.0242095 30.8824915 -37.32780099999999  -24.4603415 34.574893 -31.8314345  -25.3157275 35.212203 -30.4525215  -27.0367555 36.445854 -32.757057  -26.386504 37.896695 -31.679535  -25.531118 37.259385 -33.058448  -31.3910165 40.0600135 -23.271191  -32.798616 39.06407 -23.042674  -29.598252 38.53401599999999 -21.1433675  -28.7185795 29.7930375 -33.0706885  -28.1508565 31.3303245 -32.146845  -29.7852265 32.4732075 -34.5121875  -27.328067 30.581274 -33.5617375  -25.772847 31.5712945 -33.844439  -24.8010425 33.1862775 -37.6415485  -23.750088 32.668357 -38.790614  -22.547503 30.887023 -36.6959815  -23.1448575 34.140675 -37.832226  -25.0501855 30.700942 -35.164091  -22.796646 28.4016875 -34.218524  -23.5076305 29.3243855 -32.9154995  -33.46713 35.789794 -27.111655  -31.3780275 36.143288 -28.9982795  -32.06632 36.735166 -27.4824525  -28.8820055 34.25695949999999 -28.257839  -28.802185 38.1506785 -22.8219155  -29.906124 41.02783549999999 -23.552968  -28.324722 33.359585 -34.8808295  -27.407217 32.7141775 -36.2097815  -32.090545 34.606038 -30.143309  -29.5866805 32.764094 -29.3049055  -30.675141 35.4879895 -30.540132  -31.3492805 33.914148 -31.620302  -26.4118285 27.831951 -32.0008485  -31.654514 36.23126000000001 -22.15014  -26.6054055 29.7109215 -34.8813895  -24.9710355 28.5680385 -32.516047  -23.6076795 36.11753400000001 -35.6555995  -34.881135 39.849865 -18.201504  -32.382712 37.996822 -17.7690355  -33.530931 40.8772525 -18.379787  -34.1992625 39.6345755 -19.809445  -34.17364449999999 38.0680685 -22.6956745  -32.773486 37.249324 -25.8898085  -30.5638715 33.4214365 -21.120811  -27.8231205 37.133318 -31.308245  -23.999231 30.1830215 -36.3131565  -26.4689895 31.872512 -37.6105025  -25.418035 31.3545915 -38.759568  -26.0175365 35.87281950000001 -29.0344625  -27.028302 38.6504085 -30.137326  -26.3656925 32.385547 -27.427946  -24.94676 33.1883275 -27.807449  -25.965777 37.99063750000001 -26.271423  -24.9550115 35.2130485 -25.1685595  -25.6833525 35.7333115 -23.6788875  -24.261454 36.577153 -23.947729  -25.4449755 39.3067175 -30.653006  -25.2107415 37.4293165 -27.76374  -26.0867735 40.060431 -29.110797  -24.5689435 36.675603 -29.305949  -24.503447 40.71674 -29.626477  -23.627415 38.0856255 -28.27942  -22.751383 35.454511 -26.932363  -20.512076 45.895494 -24.675056  -17.8307765 43.5255055 -24.371085  -18.701242 43.8627405 -23.1190665  -19.1948655 46.383816 -24.7813225  -19.6416105 45.558259 -25.9270745  -18.771145 45.221024 -27.179093  -18.3244 46.046581 -26.033341  -17.877655 46.872138 -24.887589  -17.3840315 44.3510625 -23.225333  -16.890408 41.829987 -21.563077  -23.686356 39.004041 -32.459842  -21.3987565 36.19848349999999 -32.2372035  -20.9254455 37.2037855 -31.3679505  -22.475285 36.520307 -31.140864  -22.6098275 38.6822175 -33.5561815  -21.533299 38.360394 -34.652521  -19.848917 36.881962 -32.46429  -21.264214 34.036573 -29.821886  -19.7143745 34.7200515 -30.0489725  -18.164535 35.40353 -30.276059  -20.14166 48.869196 -18.496357  -17.7607605 46.32708150000001 -18.553239  -18.484819 46.6967555 -16.903316  -19.2726895 45.776121 -18.460408  -18.403719 42.683046 -18.424459  -16.89179 43.2340065 -18.51729  -17.6158485 43.6036805 -16.867367  -16.827978 44.524315 -15.310275  -16.1039195 44.154641 -16.960198  -15.379861 43.784967 -18.610121  -25.73767 42.580176 -25.700214  -22.8976485 39.4332175 -26.971136  -24.3824505 38.6469465 -26.787103  -23.51476 40.3649355 -25.0080045  -25.1205585 41.64845800000001 -27.6633455  -24.999562 39.5786645 -24.8239715  -22.776652 37.363424 -24.131762  -21.29185 38.149695 -24.315795  -23.825359 35.966634 -30.7507105  -22.969973 35.329324 -32.1296235  -22.7545825 33.28214199999999 -29.523697  -21.707873 37.961062 -29.9029445  -23.2188695 37.229276 -29.6961025  -22.1164185 38.81741150000001 -28.486262  -24.0949015 39.8603905 -31.0431595  -21.2403865 36.186297 -27.139205  -19.72939 36.918083 -27.346047  -23.168855 44.769337 -24.390788  -20.6577605 43.9076165 -24.6277985  -21.2535225 44.669738 -26.1654145  -21.98615 43.344538 -24.4856645  -21.8404655 45.3324155 -24.532922  -22.581912 44.1066595 -26.0232805  -21.994969 43.443982 -27.655773  -21.399207 42.6818605 -26.118157  -20.803445 41.919739 -24.580541  -20.2026 43.217336 -23.071105  -21.5309895 42.6542575 -22.928971  -19.893124 40.539178 -21.467154  -20.3482845 41.2294585 -23.0238475  -20.139763 41.4862445 -26.107668  -21.6434095 40.7968385 -25.985784  -21.0476475 40.034717 -24.448168  -19.7882035 38.839101 -24.437679  -18.284557 39.528507 -24.559563  -19.544001 40.724123 -24.570052  -20.592487 39.3444365 -22.8914745  -19.0888405 40.0338425 -23.0133585  -22.0216165 36.802103 -25.624079  -23.5064185 36.015832 -25.440046  -20.8621795 40.1810325 -27.50091  -23.249208 42.080361 -28.641125  -20.51062 37.533889 -25.830921  -20.6622995 35.349072 -33.624837  -18.9779175 33.87064 -31.436606  -20.527757 33.1871615 -31.2095195  -19.7913 32.33775 -32.597153  -20.909425 43.640415 -21.5788585  -22.5472905 45.7554945 -23.0406755  -21.925726 46.741652 -21.690563  -21.218901 46.318573 -23.1828095  -22.036463 36.9866935 -35.7631795  -22.233516 34.4799125 -33.517257  -23.1045155 37.4912345 -34.544941  -21.1654635 33.9753715 -34.7354955  -21.2790935 31.6444175 -32.2962265  -24.181044 37.813058 -33.4486015  -17.8827465 44.834023 -21.8636325  -19.6935805 46.8667765 -23.419622  -18.875085 47.838059 -22.164188  -18.37637 47.3550985 -23.5258885  -26.703885 40.992149 -27.1476655  -19.787295 43.5703815 -25.879817  -20.383057 44.332503 -27.417433  -18.527851 42.3747655 -25.869328  -18.8469265 41.874863 -23.071809  -17.5874825 40.679247 -23.06132  -18.391766 41.1845825 -21.5151155  -23.8663195 43.012079 -26.6779935  -24.199976 34.6517275 -26.6608765  -22.994945 41.927618 -22.8195745  -22.821035 39.085899 -21.248361  -21.81224 40.502819 -22.914451  -21.3570795 39.8125385 -21.3577575  -22.0564425 38.617797 -22.782078  -23.2705575 42.2499575 -25.1403775  -24.2793525 40.8330375 -23.4742875  -24.4532625 43.6747565 -25.045501  -23.498167 33.991111 -28.0789355  -22.0077985 34.745542 -28.3771245  -25.03643 38.450368 -32.0696885  -19.0069735 38.223295 -25.952805  -24.938409 45.163014 -21.780219  -22.4157665 42.851096 -21.6236865  -23.879722 42.12445649999999 -21.51429  -24.053632 44.9661755 -23.0855035  -23.505986 47.334749 -18.517293  -20.003556 46.0839405 -16.840736  -20.9548525 45.0088975 -1
[...]
<PointData  Scalars="p_O2"> 
<DataArray  type="Float64"  Name="p_O2"  format="ascii">9.9828469866784573e+01  9.9833840104035502e+01  9.8946773978755616e+01  9.9903547667834005e+01  9.9802730314365178e+01  9.9548159695709757e+01  9.9481341083449422e+01  9.9400723072210894e+01  1.0003407827757218e+02  1.0004674376451521e+02  9.9470706924777105e+01  9.7478073156375729e+01  9.5846399688275255e+01  9.9533937606302189e+01  9.9346683047896349e+01  9.9625051251742590e+01  9.6885340234746536e+01  9.9776568953800606e+01  9.9601425490060322e+01  9.9207915567636746e+01  9.9665574039854448e+01  9.8014584739927116e+01  9.8225657051362845e+01  9.7714310396410127e+01  9.9285652906985831e+01  9.9708320409953529e+01  9.9526222239748591e+01  9.9622077254940550e+01  9.9549061833918046e+01  9.9733272058604015e+01  9.7846218680183483e+01  9.8998584696609100e+01  9.9601822681078929e+01  9.9105672290934137e+01  9.9159418283811561e+01  9.8926549557980877e+01  9.9195533108138960e+01  9.9601789458208629e+01  9.9778580524305028e+01  9.9913019959511018e+01  9.9572277009768541e+01  9.9654872495085968e+01  9.9779108608959106e+01  9.9542577307735854e+01  9.9660516787815880e+01  9.7321095885166400e+01  9.9426872446925273e+01  9.9846325358257701e+01  9.8490944116231304e+01  9.9821521699304540e+01  9.9501761561286230e+01  9.9265612220110441e+01  9.8840276094985398e+01  9.9282017188648339e+01  9.9470135520579873e+01  9.9922110364639494e+01  9.9934621789524883e+01  9.9741487146282822e+01  9.9857216306398726e+01  9.7390641356163172e+01  9.6707096399419342e+01  9.9380037789824314e+01  9.9415710198828734e+01  9.9376905376178811e+01  9.9524143709830966e+01  9.9805451835501088e+01  9.9265922669675433e+01  1.0007881540906634e+02  9.9924678815277076e+01  9.9707233234555090e+01  9.9848185229911437e+01  9.9590605071986928e+01  9.9976984454568097e+01  9.9882898421161798e+01  9.9163008851731860e+01  9.9502266488430209e+01  1.0005006583771608e+02  9.9767710040267644e+01  9.9781859048693022e+01  9.9962761752448642e+01  9.9753320731092955e+01  9.8726742837465224e+01  9.9004451820667825e+01  9.6520346352836313e+01  9.5777332217708420e+01  9.8251945411370230e+01  9.9469804800540189e+01  9.9113415020031056e+01  9.9121275280620566e+01  9.9954887178946279e+01  9.9810033764374111e+01  9.9657781101066831e+01  9.8471338420093645e+01  9.8323124933406049e+01  9.9770003759327508e+01  9.9652974459855329e+01  9.9816385927869177e+01  9.8509631577046932e+01  9.8194224109800714e+01  9.9844513660204612e+01  9.9671828265848859e+01  9.9827116713057180e+01  9.9672908338030069e+01  9.9226239510150478e+01  9.9887924708386450e+01  9.9709591792700436e+01  9.9928101103776910e+01  9.9604797695306502e+01  9.9586548386977313e+01  9.7855744519152708e+01  9.8797396753525277e+01  9.8064221302177913e+01  9.9810356760838019e+01  9.8817428890842038e+01  9.9702607294683304e+01  1.0005523916613731e+02  9.9773555510760630e+01  9.9491988986202841e+01  1.0013942489358770e+02  9.8850849448762304e+01  1.0003605509170293e+02  1.0004210463311004e+02  9.9197862668265955e+01  9.9639898681949660e+01  9.9419965188816676e+01  9.8540613493814661e+01  9.8580597678422450e+01  9.9775551979449219e+01  9.9885671136683300e+01  9.9955595477975464e+01  9.9556966259658793e+01  9.7464420941607514e+01  9.9514908207582977e+01  9.9791885178361483e+01  9.9795729571152449e+01  9.6600109024282645e+01  9.9011317397380935e+01  9.9654652298131381e+01  9.9701190597151268e+01  9.8927255220767663e+01  9.5726696927280528e+01  9.9134404254475740e+01  9.9464302529946465e+01  9.9255992456896692e+01  9.9497993680022105e+01  9.8691697329994355e+01  9.9764311661893629e+01  9.9581633785580095e+01  9.9966854500776805e+01  9.9866863243500362e+01  9.9582655605644774e+01  1.0003225971867323e+02  9.9792047275637415e+01  9.9639131668996399e+01  9.9173959642376673e+01  9.9723913994117623e+01  9.9860676082430118e+01  9.9819300142601961e+01  9.9669906166816745e+01  9.9045683847364018e+01  9.9849563828715972e+01  9.9380268965920919e+01  9.9731082070668492e+01  9.9601805187222126e+01  9.9972411046160673e+01  9.9860407393710901e+01  9.9633427083352117e+01  9.9671623394495583e+01  1.0004381370269179e+02  9.9956030560698210e+01  9.9801237141826519e+01  1.0024516886136449e+02  1.0005935431230412e+02  9.9944694475897123e+01  1.0014211253820068e+02  1.0009294515504369e+02  9.9670073046157285e+01  9.9299953426974355e+01  9.9683110678732845e+01  9.9737676952452333e+01  9.9976254524591695e+01  9.9639929776090568e+01  9.9957143262877764e+01  1.0026571660908756e+02  1.0012413594645938e+02  9.9647982404445855e+01  9.9681164553136810e+01  9.9858164172226267e+01  9.9906466577917257e+01  1.0001993701749164e+02  9.9830201918590390e+01  9.9950176677010958e+01  1.0004812684472205e+02  9.9948228798269682e+01  9.9996982492202918e+01  9.9450213173245217e+01  9.9550143076438204e+01  9.9786608080753567e+01  9.9327200668962746e+01  1.0044257082659800e+02  9.9184358006860563e+01  9.9922287507207429e+01  1.0002658373868654e+02  9.9241171415590117e+01  9.9531255722493484e+01  1.0002456086164916e+02  9.9984807500165161e+01  9.9767094198488536e+01  9.9898534763642274e+01  1.0000625062962696e+02  9.9933802243951575e+01  9.9737544662527469e+01  9.9857827329724415e+01  9.9925748628649046e+01  9.9923883738426355e+01  9.9275740735953619e+01  9.9976554526904053e+01  9.9415609824742120e+01  9.9736531842163274e+01  9.9611796359206465e+01  9.9548861786992418e+01  9.9777874709695382e+01  9.9800293277649004e+01  9.9867752809504282e+01  9.9811951002595094e+01  9.9710081961036920e+01  9.9418070943798782e+01  1.0007206237352338e+02  1.0033025857515487e+02  9.9888130864891167e+01  9.9385445005832977e+01  9.9933595416479079e+01  9.9867885832881072e+01  9.9882834673888169e+01  9.9747667675845051e+01  9.9688373418453025e+01  1.0007449916464607e+02  9.9907131667466473e+01  1.0004336573962323e+02  9.9878993031439677e+01  9.9666455752479493e+01  1.0001682731141705e+02  1.0001203708800065e+02  1.0008167794484942e+02  9.9917259397922237e+01  1.0016913831312269e+02  9.9909369704703124e+01  9.9260089993620980e+01  9.9777730708028614e+01  9.9730689096300054e+01  1.0018368761839588e+02  1.0011195291949299e+02  9.9935758519337810e+01  9.9717997137725959e+01  1.0004210887749922e+02  1.0013306707203084e+02  9.9781626429538008e+01  1.0041700606307727e+02  1.0055352339863997e+02  9.9982622298117363e+01  1.0022422924506779e+02  9.9742050673826910e+01  1.0023406585107661e+02  1.0006387368648726e+02  9.9996702661557578e+01  1.0014417514618202e+02  9.9885668499770290e+01  1.0051843359773542e+02  1.0005472364792378e+02  9.9875984334087363e+01  9.9796175252476374e+01  9.9357345075657932e+01  1.0044563943742600e+02  9.9897185481191869e+01  9.9854506914568148e+01  1.0011434067659660e+02  1.0003868512863633e+02  9.9844660204002963e+01  9.9276092888978553e+01  9.9454825614870785e+01  9.9768340479632585e+01  9.9952890059997259e+01  1.0009364306862737e+02  9.9309440480993374e+01  9.9744775068031473e+01  9.9910597454413605e+01  9.9883308865401261e+01  9.9924486717182518e+01  9.9910139599668355e+01  9.9891163988505284e+01  1.0002921293822696e+02  9.9966099001678927e+01  1.0001508554782583e+02  1.0018198805441240e+02  9.9710187482351401e+01  9.9522751940289439e+01  9.9908235785029788e+01  9.9515772996883854e+01  9.9809535317289203e+01  9.9957772614755001e+01  9.9814123404961208e+01  9.9746688382293854e+01  9.9727588692654336e+01  9.9754883259482895e+01  1.0005539275398088e+02  1.0023923020903263e+02  9.9979507968812399e+01  1.0010666051186230e+02  1.0013638728990979e+02  9.9985321229882572e+01  1.0003193509314941e+02  9.9604006969342635e+01  9.9944842719699992e+01  9.9966651270074337e+01  1.0000679300029245e+02  9.9963345573909606e+01  1.0001062892514541e+02  9.9487053927955600e+01  9.8501095322594026e+01  9.8684685080169317e+01  9.9618279875895382e+01  9.9749595457980448e+01  9.9658654632252123e+01  9.9851305942889510e+01  9.8820589729306292e+01  9.8866087987282313e+01  9.9990225622501171e+01  9.9933432252455802e+01  9.9996917479692144e+01  9.9876907479315165e+01  9.9182387124130656e+01  9.9886369097417898e+01  9.7908604569668583e+01  9.9702473307343411e+01  9.8421057617942481e+01  9.7204181197481589e+01  9.7086213333479208e+01  9.9483561262791355e+01  9.9707740518317451e+01  9.8349175926523742e+01  9.9413598655649494e+01  9.9377476509894578e+01  9.9598736472417713e+01  9.9585792998420814e+01  9.9377819177171702e+01  9.9755101238333026e+01  9.9998387719063430e+01  9.8763711536723747e+01  9.9816298282052315e+01  9.9876448700632707e+01  9.9818077715550373e+01  9.9331369048961008e+01  9.9395569654199079e+01  9.9837250943631759e+01  9.9222264297065209e+01  9.7564045110704129e+01  9.5839367372291647e+01  9.9465231927599945e+01  9.9322484362107375e+01  9.9630964913320511e+01  9.6906908766730339e+01  9.9793135754833202e+01  9.9608718839776870e+01  9.9204804370556730e+01  9.8422650882885478e+01  9.7238725746463913e+01  9.7086382471114092e+01  9.9466708147152744e+01  9.9716189592317861e+01  9.8349382155591030e+01  9.9598680951044031e+01  9.9847852319791727e+01  9.9071438888137720e+01  9.9905475055334705e+01  9.9766722773356648e+01  9.9233608636425586e+01  9.9891338844789090e+01  9.9791925801023297e+01  9.9977293777180805e+01  1.0007150210148055e+02  9.9648417807908658e+01  9.7957615085926463e+01  9.9867515946810613e+01  9.6575903702320232e+01  9.6914473623630499e+01  9.9709926209281690e+01  9.5569998358783877e+01  9.8782597307215084e+01  9.9407922720959903e+01  9.9254482665129714e+01  9.7968614580307417e+01  9.9938922480562454e+01  9.9604732272535102e+01  9.9395555256010937e+01  9.9490202979544733e+01  9.8440336454109499e+01  9.8624330019368529e+01  9.9730645110309510e+01  9.9226043748000791e+01  9.9724463989331980e+01  9.9664786705497690e+01  9.9818373275655759e+01  9.9515606557901748e+01  9.9061474464534044e+01  9.8407123711973782e+01  9.9913220107816485e+01  9.9905747071896755e+01  9.9890684417399299e+01  9.9619015483851214e+01  9.9714770229159825e+01  9.9063094516858612e+01  9.9926392702404542e+01  9.9812575080266114e+01  9.9121902482719278e+01  9.9840074037963475e+01  1.0003853465133331e+02  9.9764303416185513e+01  9.9547531842951315e+01  9.9623172252221153e+01  9.9479358192567588e+01  9.9735447130231151e+01  9.9748656576593106e+01  9.7973276465025791e+01  9.8029738275542812e+01  9.9594234103613488e+01  9.8850790595992308e+01  9.9531700684278221e+01  9.9697769579522827e+01  9.9536159441739258e+01  9.9180211004107036e+01  9.9819955033042589e+01  9.8998890632169619e+01  9.9875458403492999e+01  9.9621369607370454e+01  9.9986294337164480e+01  9.9847370679283031e+01  9.9873412619428507e+01  9.9779833740901651e+01  9.9550276257602476e+01  9.9144124494555172e+01  9.9825227737608387e+01  9.9711292598292061e+01  9.9976987401406390e+01  9.9699084000209595e+01  9.9947414455907335e+01  9.9880724472668717e+01  9.9948551442400301e+01  9.9515164131467458e+01  9.9871707129018915e+01  9.9986471619587277e+01  9.9801365586197861e+01  9.9914725494549870e+01  9.9177624197308162e+01  9.9183694472013400e+01  9.8985537205316945e+01  9.9888058336935231e+01  9.9997604007667135e+01  9.9964393555943857e+01  9.9552906669786069e+01  9.9193670002968375e+01  9.9837240432265162e+01  9.9882572311777039e+01  9.9307945513136033e+01  1.0021824148882293e+02  9.9599021955008396e+01  9.9576560678981778e+01  9.9803716253408595e+01  9.9970733921957219e+01  9.9790215677574707e+01  9.9604588799037771e+01  9.9699036956862130e+01  9.9755374445328613e+01  9.9735325909851852e+01  9.9847867543876518e+01  9.8500571502431910e+01  9.9866864149901701e+01  9.9731179022121879e+01  9.9219104165877610e+01  9.9122769199505029e+01  9.9970582452606862e+01  9.9984282193576206e+01  9.9705263564850441e+01  9.9758969369149455e+01  9.9578543345925638e+01  9.9999580626953460e+01  9.9860475858627396e+01  1.0007383474725134e+02  9.9878192625400146e+01  1.0012568664683162e+02  9.9768406834172083e+01  9.9721210963086477e+01  9.9702409530608747e+01  1.0009959058042394e+02  9.9815340869548976e+01  1.0018133084610496e+02  9.9601866981985211e+01  9.9882513544127121e+01  9.9992751561369460e+01  9.9922086723299671e+01  9.9483013112774145e+01  9.9707974396877461e+01  1.0008610743270182e+02  9.9844342207058233e+01  9.9829035292359450e+01  9.9824433942708424e+01  9.9788991890247019e+01  9.9779007958923259e+01  9.9334420744605467e+01  1.0007544901276768e+02  9.9889611052023895e+01  9.9958248523683196e+01  1.0000124487074157e+02  9.9942629997636502e+01  1.0017610051608382e+02  9.9836159386519000e+01  1.0005815113967533e+02  9.8748241687886107e+01  9.9833063154210734e+01  9.9710879499720406e+01  9.9769827990424403e+01  1.0019866042805462e+02  1.0002002139319966e+02  9.9980902172888065e+01  1.0021347650611837e+02  9.9356352577033448e+01  9.9047717752187424e+01  1.0008175887518929e+02  9.9785316811161422e+01  9.9994750142377086e+01  9.9823568397153068e+01  9.9906265359663379e+01  9.9962518387386623e+01  9.9939995782465232e+01  9.9963365356552444e+01  1.0008986646507924e+02  9.9967267440544461e+01  1.0010892934806981e+02  9.9988815249550612e+01  9.9710701163273541e+01  1.0002486737211167e+02  9.9813559141712176e+01  1.0013687740685120e+02  1.0007879426340858e+02  9.9782003750917610e+01  1.0011945538719677e+02  1.0004184824968955e+02  9.9903475407207466e+01  1.0002157557055969e+02  9.9991454418257689e+01  9.9951967359519330e+01  9.9934288182571422e+01  9.9868718442638865e+01  9.9803433749184677e+01  9.9964026104099929e+01  1.0015586464193254e+02  1.0005399637678117e+02  1.0003224185390559e+02  9.9773629056344205e+01  1.0007808967772820e+02  1.0008986946362521e+02  9.9939826850814157e+01  9.9810983347027488e+01  9.9946528901908621e+01  1.0018959615777703e+02  9.9842283782959441e+01  9.9891192927632460e+01  9.9959630708193671e+01  1.0026796301505667e+02  9.9979603847972001e+01  9.9821111080621890e+01  9.9989520282469286e+01  1.0002411071190993e+02  1.0001287338707345e+02  9.9795916280431257e+01  9.9897518559156737e+01  9.9909582219803212e+01  1.0014769920337368e+02  1.0011096130113104e+02  9.9731676863027374e+01  1.0000825544866295e+02  9.9985968543577073e+01  1.0005570946141663e+02  9.9883907071742598e+01  9.9883915851894997e+01  1.0015292519413734e+02  1.0034080075750730e+02  1.0023985702512647e+02  1.0007305597953915e+02  1.0020472698090236e+02  1.0012192693245608e+02  9.9814148575180781e+01  9.9991946497747946e+01  1.0004151950409251e+02  1.0001965746701113e+02  9.9875963636411441e+01  9.9838963307643141e+01  9.9972539087676779e+01  9.9823011194814086e+01  9.9982543599179579e+01  1.0014910339623471e+02  9.9946055603193102e+01  9.9990052312271303e+01  1.0000689019992350e+02  1.0019535807837353e+02  9.9965006715384177e+01  1.0000631302419214e+02  1.0006316508949676e+02  9.9692057091642226e+01  9.9882764666582403e+01  9.9970505208084703e+01  9.9978897600709232e+01  1.0013093409565631e+02  1.0011078705249624e+02  1.0023967651524470e+02  9.9896993490727056e+01  1.0021154543214509e+02  9.9812639327551054e+01  9.9992774357070147e+01  9.9856037316762993e+01  1.0032698098614510e+02  1.0003050116075185e+02  1.0008675941785967e+02  1.0012273845940004e+02  1.0016740441950361e+02  1.0007272786631242e+02  1.0009097768673836e+02  9.9958903695094918e+01  1.0009378067502847e+02  1.0012934716516138e+02  1.0001340940175282e+02  1.0001917475272404e+02  9.9889794951241569e+01  1.0001688655992903e+02  1.0022425367387861e+02  1.0012023006663483e+02  9.9797990418836790e+01  9.9906523834985151e+01  9.9642064331125908e+01  9.9769561606505903e+01  9.9965504477394262e+01  1.0001341243675792e+02  9.9848090476730007e+01  1.0015113364026689e+02  1.0004969687746488e+02  9.9689858035519833e+01  1.0024968046198433e+02  9.9946983127158376e+01  9.9916864981223085e+01  1.0008200782864431e+02  1.0005017922367911e+02  9.9887713143837246e+01  9.9938991547791360e+01  1.0013087536359566e+02  9.9965423486703244e+01  9.9806066236419184e+01  1.0011406137929903e+02  1.0002127239451403e+02  9.9996374984246287e+01  9.9943321573261770e+01  9.9872217272406814e+01  1.0007479996117642e+02  1.0033335334811549e+02  9.9974326558476335e+01  9.9974955039624419e+01  1.0039906320834574e+02  1.0003649305985947e+02  9.9919170936675499e+01  1.0017809161786214e+02  9.9860260458329151e+01  1.0002864455108872e+02  9.9837675124380254e+01  1.0023882752088825e+02  1.0020273755092329e+02  9.9892212526720641e+01  1.0053311031161996e+02  9.9954975202338716e+01  9.9795415805939186e+01  9.9844909853363816e+01  1.0010354255234665e+02  9.9937273349191557e+01  1.0043508668226907e+02  1.0015392747793089e+02  1.0026565042646466e+02  9.9771019542439205e+01  1.0001013043747722e+02  1.0028000213568924e+02  9.9918073165553395e+01  1.0003083461179256e+02  9.9847075236786566e+01  9.9570815506243989e+01  9.9969331368795295e+01  1.0003307249691572e+02  1.0000231785305300e+02  9.9915851076679004e+01  9.9990265243623767e+01  9.9669939240158655e+01  9.9951026075931949e+01  9.9963401360780253e+01  9.9848130949262796e+01  9.9947966453755626e+01  1.0004145141229110e+02  1.0023407898673369e+02  1.0012277589377449e+02  9.9860406854798967e+01  1.0008507339012972e+02  1.0012989312930891e+02  9.9917924477665537e+01  1.0004476432780575e+02  9.9742814184708266e+01  9.9916758144386506e+01  1.0029293621639904e+02  9.9941967040630061e+01  9.9970318056562050e+01  9.9886068420455416e+01  9.9912925288826955e+01  1.0026698574178138e+02  9.9934568333173232e+01  9.9869476961148095e+01  9.9998349858728218e+01  1.0023558981766111e+02  9.9886894360373162e+01  1.0030670093295424e+02  1.0016774274704287e+02  1.0021072540144600e+02  9.9885593468345121e+01  9.9898606761755872e+01  9.9698559914646538e+01  9.9824820129519239e+01  9.9997185454875336e+01  9.9817852005851719e+01  1.0009937053048318e+02  9.9888339062585018e+01  1.0017652641335802e+02  9.9887909905114682e+01  9.9573821248948022e+01  9.9832884136560622e+01  1.0034655475090310e+02  9.9934741704691618e+01  9.9814587932111181e+01  1.0004799553328294e+02  9.9938100534934279e+01  1.0007199735975192e+02  1.0000538236208978e+02  1.0000091223959109e+02  1.0022096502967088e+02  1.0000043638824778e+02  1.0002713059944085e+02  9.9942419556341903e+01  9.9980599376506404e+01  9.9956108848147707e+01  9.9981903268522515e+01  9.9989001491183288e+01  9.9957113819756941e+01  1.0004101500216612e+02  9.9953163195284588e+01  9.9985028712890241e+01  9.9945082761463311e+01  1.0007172683618224e+02  9.9915406840271658e+01  1.0014020482256767e+02  9.9978936139546136e+01  1.0000470094315966e+02  9.9956657407265141e+01  9.9738877581673535e+01  1.0002179407962088e+02  9.9975059609684067e+01  1.0025064412785733e+02  9.9960328131058191e+01  9.9901844164054864e+01  9.9956364537258054e+01  1.0007402456824310e+02  1.0022987657366130e+02  9.9950821205006719e+01  1.0001197666548448e+02  9.9744341377649576e+01  1.0004839308800734e+02  9.9801864714560452e+01  1.0014870823380373e+02  9.9910054598567029e+01  9.9960406067400839e+01  1.0022266017608958e+02  1.0023553534768094e+02  1.0013009218218714e+02  9.9850066327944901e+01  9.9972507646709033e+01  1.0017411463104285e+02  9.9673006620773307e+01  1.0000948698041978e+02  1.0031184485928664e+02  1.0029861137375558e+02  9.9957517796036143e+01  1.0014786895991571e+02  9.9978224785643050e+01  1.0039534691013981e+02  9.9768802285310414e+01  1.0004118437427505e+02  1.0006470900500528e+02  9.9861755192426713e+01  1.0002666669175933e+02  9.9912280616816076e+01  1.0018791905976845e+02  9.9849893377266824e+01  9.9991492249206431e+01  9.9899964333071978e+01  1.0023505099064282e+02  9.9958572989634376e+01  9.9785207302995687e+01  9.9885018061089113e+01  1.0004876548537941e+02  9.9834539188172712e+01  9.9878174683242420e+01  1.0002625777452666e+02  1.0002762281939556e+02  9.9980924200371504e+01  9.9992415747113725e+01  9.9885486328198567e+01  1.0005120289796550e+02  9.9949427375626684e+01  9.9882361687561016e+01  9.9796799296076443e+01  9.9981314930086953e+01  1.0025120095965654e+02  1.0006092082708837e+02  1.0011838093561906e+02  9.9711136595970871e+01  9.9958823226142570e+01  9.9657306547837635e+01  9.9906499486153919e+01  1.0011970165098553e+02  1.0000483629547620e