<?xml version="1.0"?>
<VTKFile type="UnstructuredGrid"  version="0.1"  >
<UnstructuredGrid>
<Piece  NumberOfPoints="4970" NumberOfCells="22125">
<Points>
<DataArray  type="Float64"  NumberOfComponents="3"  format="ascii">34.972806 27.527747 -22.784336  35.572586 27.867666 -21.340687  37.4141975 29.9681425 -22.5413685  38.003092 28.632357 -23.3082775  43.127834 22.2710365 -21.184516  42.4084635 23.06318325 -21.78309525  42.77219700000001 22.27718825 -21.8805425  43.62503 23.76631975 -22.329811  42.41656 22.28334 -22.576569  43.269393 23.7724715 -23.0258375  41.55563050000001 21.57405175 -21.33382675  41.547534 22.353895 -20.540353  41.9112675 21.5679 -20.63780025  40.694701 20.8647635 -20.0910845  51.290418 15.290543 -16.477023  50.4686435 15.6803 -16.011996  50.74107875 14.95435975 -15.911808  50.74264125 15.52292175 -15.29371275  50.1917395 14.6181765 -15.346593  49.91930425 15.34411675 -15.446781  50.193302 15.1867385 -14.72849775  49.646869 16.070057 -15.546969  51.2919805 15.859105 -15.85892775  51.293543 16.427667 -15.2408325  50.470206 16.248862 -15.39390075  51.01798275 16.01648325 -16.577211  50.19620825 16.40624025 -16.112184  51.01954525 16.58504525 -15.95911575  50.7455475 16.7424235 -16.677399  50.200677 18.194304 -16.877775  49.923773 17.1321805 -16.212372  50.47311225 17.46836375 -16.777587  50.74711 17.3109855 -16.05930375  49.093061 13.94581 -14.216163  49.36996499999999 15.0079335 -14.881566  49.64240024999999 14.28199325 -14.781378  49.64396275 14.85055525 -14.16328275  52.226008 14.814978 -13.746293  51.44277125 14.597686 -13.8637605  51.20887375 14.71657725 -14.546443  51.21043625 15.28513925 -13.92834775  50.42563699999999 14.49928525 -14.6639105  50.6595345 14.380394 -13.981228  51.9921105 14.93386925 -14.4289755  50.97497625 14.8354685 -15.2291255  50.97653875 15.4040305 -14.61103025  51.758213 15.0527605 -15.111658  51.7597755 15.6213225 -14.49356275  51.525878 15.74021375 -15.17624525  51.5243155 15.17165175 -15.7943405  49.87629775 14.163102 -14.0986955  51.44277125 14.0441235 -14.37739125  50.6595345 13.273269 -15.0084895  50.6595345 13.8268315 -14.49485875  50.42563699999999 13.94572275 -15.17754125  51.20887375 14.16301475 -15.06007375  52.226008 14.2614155 -14.25992375  51.44277125 13.490561 -14.891022  52.226008 13.707853 -14.7735545  51.9921105 14.38030675 -14.94260625  50.97497625 14.281906 -15.74275625  51.758213 14.499198 -15.62528875  49.87629775 13.6095395 -14.61232625  34.377931 28.804494 -22.043741  34.977711 29.144413 -20.600092  33.783056 30.081241 -21.303146  38.632089 31.533897 -25.478914  36.2075725 30.807569 -23.39103  36.8024475 29.530822 -24.131625  39.870001 28.697744 -26.885358  37.4214035 28.1127455 -24.834847  39.251045 30.1158205 -26.182136  40.4516895 29.2173555 -25.3587885  37.135209 25.815534 -21.319813  36.0540075 26.6716405 -22.0520745  38.725229 22.775637 -21.946003  40.5708945 22.5294885 -22.261286  40.562798 23.30933175 -21.46781225  41.4237275 24.01862 -22.7105545  39.709965 21.82020025 -21.01854375  38.502605 27.256639 -24.1025855  51.44280625 15.09369875 -13.29745475  50.46898575 14.99997575 -16.64242775  49.64721125 15.38973275 -16.17740075  49.9196465 14.6637925 -16.07721275  49.6475535 14.7094085 -16.8078325  50.1965505 15.725916 -16.74261575  49.9244575 15.771532 -17.4732355  50.74588975 16.06209925 -17.30783075  50.4734545 16.7880395 -17.40801875  50.2013615 16.8336555 -18.1386385  49.92411525 16.45185625 -16.84280375  50.20101925 17.51397975 -17.50820675  49.37030725 14.32760925 -15.51199775  42.136554 26.993667 -25.136682  41.0032775 27.8457055 -26.01102  29.047005 39.520674 -27.025688  27.3894725 38.64664999999999 -23.727216  26.637046 38.2261605 -25.2293035  28.081346 37.610023 -24.5841395  28.3551315 40.557301 -26.1687645  27.663258 41.593928 -25.311841  27.115687 35.699372 -22.142591  30.524745 40.323922 -24.046231  28.820216 38.011647 -23.094411  29.785875 39.922298 -25.5359595  29.0940015 40.958925 -24.679036  26.0943765 37.3876325 -26.9894675  27.3889975 37.01857800000001 -26.2263075  27.752384 39.8897285 -27.788848  26.457763 40.258783 -28.552008  25.73099 34.516482 -25.426927  31.555041 37.479387 -27.121484  29.335364 36.5893795 -24.6320375  30.032175 35.3821775 -25.5953815  30.722537 35.854965 -23.987341  28.509309 33.284968 -24.069279  27.812498 34.49217 -23.105935  29.199671 33.7577555 -22.4612385  34.616707 35.974497 -25.367679  32.4360045 38.06201900000001 -25.0994875  33.085874 36.726942 -26.2445815  30.301023 38.5000305 -27.073586  31.039893 38.90165450000001 -25.5838575  26.4233385 35.107927 -23.784759  31.202361 31.806443 -22.688386  29.855835 32.5457055 -23.3788325  31.563008 34.6297325 -24.718479  30.2163275 37.1720115 -22.610041  28.6430155 35.9979345 -26.2742055  27.1201495 33.900725 -24.748103  27.0605105 40.9263555 -26.9319245  30.016587 37.6662255 -28.4951105  28.762569 38.686869 -28.4472125  28.478133 37.853064 -29.868737  27.1045615 36.18477300000001 -27.647832  25.648164 36.7073115 -28.301357  26.385163 35.45213 -29.230415  25.0115915 33.783839 -27.00951  24.292193 33.051196 -28.592093  27.006305 38.1303585 -30.8155105  25.534477 38.407653 -31.762284  30.374638 35.367504 -31.024524  27.7986075 34.920254 -28.548321  27.3334155 34.20935 -29.8083085  28.74686 33.677474 -29.1262145  29.4263855 36.610284 -30.4466305  27.119082 31.987444 -27.227905  25.7056375 32.51932 -27.909999  25.739519 30.37146 -30.24982  24.2866205 30.847858 -30.915826  25.013714 29.451533 -31.678195  25.931332 32.073857 -33.2408285  24.287909 28.531606 -33.10657  23.5608155 29.927931 -32.344201  25.205527 31.15393 -34.66920349999999  22.833722 31.324256 -31.581832  25.1109925 33.624326 -32.338732  26.563891 33.147928 -31.672726  25.99612 39.333218 -30.157146  27.467948 39.05592350000001 -29.2103725  29.3370615 34.7334155 -27.1746945  30.9648395 36.4234455 -29.073004  27.8141955 32.636206 -25.648592  26.425036 33.251963 -26.327416  27.952589 31.156472 -37.20117  24.58036 29.886697 -36.1829435  25.3373755 28.8274295 -36.49987849999999  26.120249 29.844039 -35.15387  27.037867 32.466363 -36.7165035  25.497978 32.509021 -37.745577  26.123145 33.776254 -36.231837  29.152504 33.341966 -34.270174  26.7202065 30.936786 -33.688372  27.6378245 33.55911 -35.2510055  28.5525465 32.249219 -35.73567199999999  27.4460115 31.856713 -32.259997  27.933198 36.88873 -31.4821845  27.388263 35.924396 -33.095632  26.46137 37.16602450000001 -32.428958  28.8814505 35.64595 -32.060078  26.755704 34.850325 -34.6637345  28.2703835 34.633181 -33.682903  23.5629575 32.187726 -30.0869625  25.015856 31.711328 -29.4209565  28.0570785 32.869482 -30.637172  29.763571 34.354735 -32.647349  26.4293005 31.179452 -28.7388625  29.026042 22.242174 -42.411963  25.761668 21.1125405 -41.2059225  26.5347465 19.535172 -41.471218  27.204307 21.106737 -40.2904795  27.583403 22.2479775 -43.327406  28.3564815 20.670609 -43.5927015  27.686921 19.099044 -44.77344  26.9138425 20.6764125 -44.5081445  26.140764 22.253781 -44.242849  25.382572 19.9713 -38.168996  28.010998 22.351291 -39.001687  28.7122225 20.761638 -39.3840575  28.398403 19.281102 -36.356152  26.189263 21.215854 -36.8802035  26.8904875 19.626201 -37.262574  27.6971785 20.870755 -35.9737815  26.995954 22.460408 -35.591411  27.991443 19.457347 -40.540896  27.6776235 17.976811 -37.5129905  26.956844 16.67252 -38.669829  26.169708 18.32191 -38.4194125  27.3218825 17.885782 -41.7216345  26.2077625 22.636588 -40.090655  26.5868585 23.7778285 -43.12758150000001  28.0294975 23.772025 -42.2121385  27.032953 25.301876 -42.012314  27.0144535 23.881142 -38.8018625  24.924762 22.4156135 -40.9897045  25.529844 24.300062 -39.579711  24.7046535 21.634774 -37.658052  24.026735 23.298248 -37.147108  25.5113445 22.879328 -36.3692595  34.805556 -4.037258 -43.683794  30.9606585 -3.1698635 -42.872436  31.678009 -4.463117 -42.219391  32.368651 -2.876134 -41.849079  33.3975635 -4.3309875 -44.707151  31.989571 -4.624717 -45.730508  30.2700165 -4.7568465 -43.242748  29.931746 -1.71501 -40.014364  29.241104 -3.301993 -40.384676  28.550462 -4.888976 -40.754988  34.12996750000001 -5.879198 -43.96195849999999  33.454379 -7.721138 -44.240123  31.0024205 -6.305057 -42.4975555  32.721975 -6.1729275 -44.9853155  32.358193 -6.1677195 -41.493982  33.0337815 -4.325779499999999 -41.2158175  31.262007 -4.614301 -38.747841  29.9062345 -4.7516385 -39.7514145  30.5968765 -3.1646555 -39.3811025  31.265518 1.32708 -38.996234  29.90611 1.30721 -40.01292  30.598632 -0.1939649999999999 -39.505299  32.335264 0.2465885 -41.9670395  29.239224 -0.213835 -40.521985  28.546702 1.28734 -41.029606  36.127619 -0.53621 -42.784432  34.1650805 0.885931 -44.317514  34.7663145 -0.6850565 -43.8611385  35.526385 1.0347775 -43.2408075  33.6965685 0.395435 -40.890333  34.925151 2.605765 -43.697183  33.0953345 1.9664225 -41.34670850000001  33.40501 -0.8339029999999999 -44.937845  44.887647 -4.8455135 -27.717143  44.0145125 -5.026744 -29.026751  44.4351705 -4.40341725 -28.487237  45.687702 -5.3037075 -29.1696465  44.466989 -5.46884025 -28.256657  45.7195205 -6.3691305 -28.9390665  46.1401785 -5.74580375 -28.3995525  44.046331 -6.092167 -28.796171  43.982694 -3.961321 -29.257331  45.2352255 -4.86161125 -29.9397405  45.582804 -4.877709 -32.162338  44.36209100000001 -5.042841750000001 -31.2493485  44.782749 -4.419515000000001 -30.7098345  44.8145675 -5.484938 -30.4792545  43.56203600000001 -4.58464775 -29.796845  43.141378 -5.207974500000001 -30.336359  46.0352805 -5.31980525 -31.392244  46.487757 -5.7619015 -30.62215  42.382584 -3.044933 -26.352324  41.96192600000001 -3.66825975 -26.891838  43.182639 -3.503127 -27.8048275  43.2144575 -4.56855 -27.5742475  42.79379950000001 -5.19187675 -28.1137615  42.76198100000001 -4.12645375 -28.3443415  41.541268 -4.2915865 -27.431352  43.6351155 -3.94522325 -27.0347335  40.699952 -5.53824 -28.51038  41.12061 -4.91491325 -27.970866  42.341323 -4.7497805 -28.8838555  42.3731415 -5.8152035 -28.6532755  39.879952 -3.138143 -39.188538  36.841861 -3.717597 -37.8893535  
[...]
<PointData  Scalars="p_O2"> 
<DataArray  type="Float64"  Name="p_O2"  format="ascii">1.0024111624264017e+02  1.0035897181813235e+02  1.0019285429637900e+02  9.9973585246877235e+01  9.9909998799980968e+01  1.0000875921827222e+02  1.0003661163587303e+02  9.9388035080432857e+01  1.0011653442435005e+02  9.9897748249278777e+01  1.0063866868452574e+02  1.0027010965250496e+02  1.0032648121395412e+02  1.0016469988559976e+02  9.9034498056901072e+01  9.9960451007855667e+01  9.9414365725307803e+01  1.0007398901385936e+02  1.0070727645322835e+02  1.0031950683553067e+02  1.0020922230624340e+02  1.0024969940432007e+02  1.0032448844480625e+02  9.9666256380019533e+01  1.0023743196117748e+02  9.9889412422017614e+01  9.9516871922706258e+01  1.0005234613436350e+02  9.9728709476756777e+01  1.0016788973436465e+02  9.8989237528126338e+01  1.0041777502034270e+02  1.0018067965922607e+02  1.0293922630322334e+02  9.9361247068666160e+01  1.0113115003398589e+02  1.0041676597969590e+02  9.4428896645814163e+01  9.8122647119463608e+01  1.0067016452099740e+02  1.0153636829454240e+02  1.0133922121519747e+02  1.0084476956981585e+02  1.0147099210828814e+02  9.9304221780270225e+01  1.0131607313971533e+02  9.9561949574465686e+01  1.0002098142114737e+02  1.0046344361801586e+02  1.0039526069774406e+02  1.0111807690744601e+02  1.0464099576062200e+02  1.0032009545179343e+02  1.0074708612085448e+02  1.0004172731153878e+02  9.9752059759161256e+01  9.0315459012046333e+01  9.5262139146958816e+01  8.7399776599269188e+01  9.9021614320184057e+01  1.0301309765108098e+02  1.0305889835708734e+02  1.0209113737946198e+02  1.0005616793250928e+02  9.9745721413567665e+01  1.0018254087265686e+02  9.9900691047282237e+01  1.0000237267205505e+02  1.0002181878946250e+02  9.9751946741427375e+01  1.0018268302503800e+02  9.9872410007354546e+01  1.0001708796037258e+02  9.9779799762927610e+01  9.9336075054263546e+01  9.9896641453824145e+01  1.0070593242034408e+02  1.0032650053541605e+02  1.0006806045951782e+02  9.8288164514992488e+01  1.0000943759981867e+02  1.0616687593803616e+02  1.0007373088599330e+02  9.9664208153123269e+01  9.9811726842449815e+01  9.9745975297880264e+01  9.9799484406070789e+01  1.0029184403995926e+02  9.9988444872512900e+01  9.9745110372635594e+01  1.0007373139146718e+02  9.9771621855283826e+01  9.9720495630241473e+01  1.0073276101357600e+02  9.9926237425439680e+01  1.0035789785082245e+02  1.0009340873083561e+02  9.9892212526720641e+01  1.0053311031161996e+02  1.0015797342901941e+02  1.0007272883076047e+02  1.0023882752088825e+02  9.9954975202338716e+01  1.0000371816444067e+02  1.0012165061507993e+02  9.9912385497927502e+01  1.0014719333779989e+02  9.9888339062585018e+01  1.0011582472116301e+02  1.0038907029172148e+02  9.9817852005851719e+01  1.0017652641335802e+02  1.0027048356565621e+02  9.9805426583518056e+01  1.0005299179515913e+02  1.0034354011961277e+02  9.9747099205855363e+01  1.0004915033092854e+02  1.0015569477660614e+02  1.0005457700574637e+02  9.9720050299576428e+01  1.0019302649178429e+02  9.9789170053527414e+01  1.0008627720604524e+02  1.0014870823380373e+02  1.0038790166979408e+02  9.9980484992864845e+01  1.0000006686687617e+02  9.9734388606666386e+01  9.9993332884015004e+01  9.9689781170714184e+01  9.9657306547837635e+01  9.9946494192277726e+01  9.9947898125438186e+01  1.0003934580890416e+02  1.0022862970952686e+02  1.0024815506310894e+02  9.9969554031262476e+01  1.0004088304229720e+02  1.0000643148093117e+02  1.0019727922490497e+02  1.0006634103667750e+02  1.0032016781888588e+02  9.9824394957841392e+01  1.0030843121196780e+02  1.0004472169146172e+02  1.0002766427590230e+02  9.9953814159117670e+01  9.9653780650899250e+01  1.0000369604795463e+02  9.9865518447082181e+01  1.0009349927029658e+02  1.0020755108316709e+02  1.0005592524404122e+02  9.9990597989439351e+01  9.9989823498270695e+01  9.9961638227372475e+01  9.9636993359384462e+01  9.9976632190214460e+01  9.9883784098572519e+01  1.0012256552595483e+02  9.9942304121936857e+01  9.9840256842440354e+01  9.9842095112848668e+01  1.0016902321073312e+02  9.9709131916614112e+01  1.0016197536867654e+02  9.9728653152831257e+01  9.9974297653781250e+01  1.0004734111846084e+02  1.0002590404392073e+02  9.9991436363174131e+01  1.0014181032386563e+02  9.9697782102469063e+01  1.0009636459501900e+02  1.0000823829724898e+02  1.0011449504360661e+02  9.9780213055292990e+01  1.0001557384637472e+02  9.9977149267421879e+01  1.0008867506315659e+02  9.9919475714959859e+01  9.9977778161151264e+01  1.0010464226423861e+02  1.0004469288363099e+02  9.9950828487065934e+01  9.9963865618904805e+01  9.9882482180683382e+01  1.0009839175786315e+02  9.9774873695924327e+01  9.9733849538904025e+01  1.0011260545694820e+02  1.0019393498622681e+02  9.9921645511792732e+01  9.9980064492433627e+01  9.9974836477225480e+01  1.0014859218970328e+02  1.0019236842652856e+02  9.9729969106124429e+01  9.9952668508398574e+01  1.0005377432429090e+02  9.9862087349217177e+01  9.9781738439972358e+01  1.0010395636458382e+02  9.9971524383244585e+01  1.0044488197242811e+02  1.0032234279649239e+02  9.9944087425245044e+01  1.0010275353507049e+02  1.0002796275222309e+02  1.0011828439095227e+02  9.9931888661435167e+01  9.9855918227230958e+01  1.0011395643657931e+02  1.0040297160296322e+02  9.9494197141573807e+01  1.0021835741974016e+02  1.0015672610745737e+02  9.9821417021436631e+01  9.9775888417236501e+01  9.9937366416807194e+01  1.0006008024146432e+02  9.9649403361613849e+01  9.9950364356840311e+01  1.0024119210495395e+02  1.0013000397251440e+02  9.9883951118725832e+01  1.0033588202200342e+02  1.0004022809140390e+02  1.0015446831885833e+02  9.9933926579798879e+01  9.9983057173325918e+01  9.9819046047968115e+01  9.9938785798839007e+01  1.0015781566576699e+02  9.9899064901884657e+01  9.9979895896532668e+01  9.9669319345154477e+01  9.9895859722893675e+01  1.0029248870553327e+02  9.9713558204036957e+01  1.0009910720816950e+02  1.0013037518998421e+02  1.0006570776678730e+02  1.0004281511011858e+02  9.9946251122838660e+01  1.0006330409983782e+02  1.0021352361700501e+02  9.9846279666114654e+01  9.9887943619744050e+01  1.0002703588734592e+02  9.9971861557465715e+01  9.9745459130914952e+01  1.0003892534587742e+02  1.0005454339470347e+02  1.0004250046638023e+02  1.0009283356948470e+02  1.0005712725046226e+02  1.0035848909602328e+02  1.0015255915044756e+02  1.0007890767875752e+02  1.0001896935740854e+02  9.9836865494222636e+01  9.9676081846509703e+01  1.0038330350517543e+02  9.9806121910949955e+01  9.9895301968557561e+01  1.0001948378928611e+02  1.0004151791590893e+02  9.9927113667237094e+01  9.9986230826164800e+01  1.0043527058466617e+02  1.0030605329076286e+02  9.9605366764472706e+01  9.9893264950435182e+01  1.0017378951808210e+02  9.9979067572623094e+01  1.0004977323144263e+02  9.9882794097469969e+01  1.0036998603452874e+02  1.0003390943147805e+02  1.0013032915299674e+02  1.0022142955987940e+02  9.9817709617313639e+01  9.9839985765647654e+01  1.0032015191466807e+02  9.9981618695312150e+01  9.9897625330933323e+01  9.9943490907316104e+01  9.9841691261041234e+01  9.9934602149547871e+01  9.9917875374018777e+01  1.0024942880310147e+02  9.9896923509048435e+01  1.0012298819544458e+02  1.0017413233798793e+02  9.9507255037882615e+01  9.9909113275078383e+01  1.0037932660230258e+02  1.0008786111654067e+02  9.9949423090981057e+01  9.9959276257374327e+01  1.0020006634737099e+02  9.9889656599234399e+01  9.9894123515395606e+01  9.9964927878220067e+01  1.0018379875155823e+02  9.9468347321987977e+01  9.9941334718210442e+01  9.9877158382955372e+01  1.0031292621838487e+02  1.0021731038706292e+02  1.0007253989430448e+02  1.0013441408574192e+02  9.9597672175496839e+01  9.9986115302676055e+01  9.9685369569873146e+01  9.9881018447759857e+01  9.9722422369752849e+01  9.9963362085102830e+01  9.9953596131148927e+01  1.0030066648937317e+02  9.9424087208936697e+01  1.0012218022876922e+02  1.0021591446464372e+02  9.9344994023839718e+01  1.0082525483621508e+02  1.0050262684014514e+02  9.9756311825680683e+01  9.9937883792355720e+01  9.9915544442044109e+01  1.0006617053873276e+02  1.0018591339823163e+02  1.0000497260511709e+02  9.9973185992835596e+01  1.0027849753564530e+02  1.0005347739242704e+02  9.9727457870661965e+01  9.9950968723906257e+01  9.9818809576158998e+01  1.0004935033442051e+02  1.0002576181247626e+02  1.0059409287451686e+02  9.9890830626430784e+01  9.9715033837428692e+01  1.0012871429770556e+02  9.9934394090229077e+01  9.9780774779778824e+01  1.0001187940344442e+02  9.9956738114063640e+01  9.9867408749920415e+01  9.9974807891467393e+01  1.0003273675111225e+02  1.0040115333584720e+02  1.0035568218341261e+02  9.9594548529428508e+01  9.9822946891621839e+01  1.0047855374344678e+02  1.0007843755922694e+02  1.0005217286869397e+02  1.0015143971058015e+02  9.9913782384504202e+01  1.0004886392933480e+02  1.0013685889328485e+02  1.0037952041649419e+02  1.0044883230052841e+02  1.0027196394332951e+02  9.9945297865392206e+01  1.0050260097140716e+02  1.0070522682643286e+02  1.0000579644045028e+02  9.9708352836002675e+01  9.9832093043466728e+01  1.0000244715522859e+02  1.0026563535204174e+02  1.0023893587479112e+02  9.9672987736820787e+01  1.0030790012537032e+02  9.9971315996210535e+01  1.0016495201459776e+02  9.9252744827380340e+01  1.0084082894649555e+02  9.9660910077779448e+01  9.9652396140172513e+01  1.0025982513519236e+02  1.0003763107090128e+02  9.9597599064235354e+01  9.9756345054274831e+01  9.9917692016079002e+01  9.9999194695468063e+01  1.0007766264481302e+02  9.9949123777537153e+01  9.9981238673326303e+01  9.9383238660917115e+01  9.9965867530665662e+01  1.0014746545340930e+02  9.9575207587554360e+01  9.9971614399450985e+01  1.0039246481381980e+02  9.9947001836982977e+01  1.0061985751695610e+02  9.9399842872624887e+01  9.9843066368149451e+01  1.0000935147741505e+02  9.9918427490592350e+01  9.9720669339400786e+01  1.0024591621808753e+02  1.0013167882518187e+02  9.9831855034791374e+01  1.0021877542226889e+02  1.0037916148537325e+02  1.0039597475149112e+02  9.9717988685498838e+01  9.9908192165271544e+01  9.9926546859213829e+01  1.0012727754703728e+02  1.0011612612026211e+02  9.9859885813035149e+01  9.9693190121652918e+01  9.9820150827531435e+01  9.9781925682212247e+01  1.0029621769441324e+02  9.9834182716133256e+01  9.9684840018500481e+01  9.9551657435854580e+01  9.9665055921027530e+01  1.0009791937510630e+02  1.0015985266444061e+02  1.0031363581708192e+02  1.0096643130604023e+02  9.9529347837110095e+01  1.0029172818723119e+02  1.0001214186965711e+02  1.0013561690191507e+02  1.0008090494495237e+02  9.9196648568438931e+01  9.9845262164942767e+01  9.9970575712499581e+01  9.9850818765956689e+01  9.9637513585338240e+01  1.0033850505482324e+02  1.0023856483153889e+02  1.0004391529475738e+02  9.9984730418463741e+01  9.9961327403339908e+01  9.9834036687843948e+01  9.9839557793790320e+01  9.9733451100403087e+01  1.0011403286927242e+02  1.0009730885725973e+02  1.0001981825170540e+02  9.9570640521461925e+01  9.9818153049675914e+01  1.0018717647499879e+02  1.0022774972879029e+02  9.9937512310487179e+01  1.0075847330319029e+02  9.9508563944902079e+01  9.8925410670004950e+01  1.0008915724019133e+02  9.9901028559252751e+01  9.9812176096420885e+01  1.0029445122609091e+02  9.9704715206527908e+01  1.0016499242850668e+02  1.0053517556659051e+02  9.9884975977286643e+01  9.9685779992325720e+01  9.9839343822497483e+01  1.0032982739167063e+02  1.0018232975891246e+02  1.0019313353480742e+02  9.9204370258569085e+01  1.0006313129688098e+02  1.0000644614319435e+02  9.9928583315687192e+01  9.9708604574073618e+01  9.9755534676363453e+01  9.9884055970231245e+01  1.0009382183899476e+02  1.0007397431693188e+02  1.0010930487326276e+02  1.0003198142060526e+02  9.9953445594491953e+01  9.9851886489759181e+01  1.0004401081976242e+02  9.9763193193020953e+01  9.9933580859528305e+01  9.9707267546972318e+01  9.9954510776577379e+01  1.0005763285624523e+02  1.0003108542553589e+02  9.9538318294776559e+01  1.0030844532215042e+02  1.0032282819465898e+02  1.0060773519588302e+02  1.0009965549673693e+02  9.9566456439999769e+01  9.8507914894767197e+01  1.0038328809082087e+02  1.0003152863547368e+02  9.9058016811193042e+01  1.0019205020487011e+02  9.9717315574867598e+01  1.0010578310204518e+02  9.9767164375757190e+01  9.9986486954625690e+01  1.0007634342555544e+02  9.9826838678409345e+01  9.9876407923730085e+01  1.0054649381053372e+02  1.0108425424418752e+02  9.9644656148478632e+01  9.9882631646026738e+01  1.0000308479926133e+02  1.0044458373598493e+02  9.9490032322638541e+01  9.9896115740599441e+01  1.0006207999917875e+02  1.0007020237562421e+02  9.9320670039107370e+01  1.0007908176542368e+02  1.0092331626863859e+02  9.9979868747157298e+01  9.9864217305201976e+01  9.9588010171494275e+01  9.9887253095654870e+01  1.0035994556008822e+02  9.9796012130345346e+01  1.0020881407774759e+02  1.0016422177024053e+02  9.9983739714062182e+01  9.9928084541776627e+01  9.9964643280945509e+01  1.0019164822653167e+02  9.9830969775333756e+01  1.0003706771508632e+02  9.9906082264386939e+01  1.0011535253790650e+02  1.0074339374508604e+02  1.0012915254166356e+02  9.9603940247398526e+01  1.0009224660175020e+02  1.0013792065831548e+02  1.0004707629536929e+02  9.9645740353923784e+01  1.0014428343868671e+02  1.0021472564430384e+02  9.9797462906523265e+01  1.0010380834711688e+02  1.0001216341444486e+02  1.0014967606309530e+02  1.0005288397672578e+02  9.9999774636730862e+01  1.0027067322274397e+02  9.9997036901132418e+01  1.0018186724476971e+02  9.9627068622298765e+01  9.9973917391622976e+01  9.9635635819820948e+01  1.0011505905296208e+02  1.0006149982217696e+02  1.0009927075034554e+02  9.9902977965536735e+01  1.0002295205966519e+02  9.9963728814581870e+01  1.0002599034519221e+02  1.0021418127791777e+02  1.0001631058428282e+02  9.9872930777358960e+01  1.0029268045077993e+02  9.9979041459270533e+01  9.9644248177071859e+01  9.9722987384380090e+01  1.0014790604366823e+02  1.0016300031222106e+02  1.0016623018644833e+02  1.0014206332547624e+02  9.9679494093594471e+01  1.0008217321074606e+02  9.9953366382263127e+01  1.0025350806985922e+02  9.9961131164654716e+01  9.9617240233814854e+01  9.9864449705344200e+01  9.9704357861518645e+01  9.9815227055362868e+01  9.9821783180157283e+01  1.0005978295650625e+02  1.0029253767519346e+02  9.9869423344696884e+01  1.0005649085779635e+02  9.9950847837084623e+01  9.9806998138053288e+01  1.0010844642722104e+02  1.0035860441548782e+02  1.0053359370103438e+02  9.9803751645926425e+01  9.9584923115533911e+01  1.0032610834142808e+02  9.9944358599017946e+01  9.9955147414661369e+01  9.9464035295007974e+01  1.0034897838475682e+02  9.9933978311664049e+01  1.0006898784961912e+02  1.0005673520013721e+02  9.9919858183844156e+01  9.9369324695296626e+01  1.0023228759101985e+02  9.9688076831973973e+01  1.0009466024813790e+02  1.0032372978359270e+02  1.0008416576303466e+02  9.9885917553855975e+01  1.0022837564608257e+02  9.9876568891925658e+01  1.0005719206091942e+02  1.0030682194517212e+02  1.0035898783522934e+02  9.9933627866423862e+01  1.0005144017641544e+02  9.9875960468448667e+01  1.0050926029067294e+02  1.0038975474426269e+02  1.0027850141794302e+02  9.9932205645173028e+01  9.9933309717660379e+01  9.9893391345949070e+01  9.9883140522004680e+01  9.9947085112528612e+01  9.9862308502251807e+01  1.0007443253834840e+02  1.0014976706144527e+02  9.9938772234574657e+01  9.9841758634500295e+01  1.0003883468339011e+02  9.9865417297791183e+01  9.9903229970183702e+01  1.0031862744622073e+02  9.9489909171972471e+01  9.9600687374439090e+01  9.9724936411974895e+01  9.9858649113358851e+01  1.0002549100425084e+02  1.0020362463920695e+02  9.9972258928791121e+01  9.9692591619305034e+01  1.0004151036207432e+02  9.9681227569457349e+01  1.0008696760889907e+02  1.0003904915046303e+02  9.9510973884140583e+01  1.0002237783109749e+02  1.0006398920015333e+02  9.9724660340961904e+01  9.9887287676164064e+01  1.0008637783438274e+02  1.0011600156118870e+02  1.0004810985375573e+02  9.9822644547063419e+01  1.0011503296463516e+02  9.9989147853549085e+01  9.9883919545337847e+01  9.9798263409910845e+01  1.0014346144099980e+02  9.9584086843686080e+01  1.0009221910655509e+02  9.9670877709999331e+01  1.0019141535239132e+02  9.9732310446871864e+01  1.0009245716858040e+02  9.9735517569665703e+01  9.4394788213204222e+01  1.0153180573003019e+02  1.0618466822872057e+02  9.8118753596946775e+01  1.0083144978579934e+02  1.0059122641617901e+02  1.0093449457162963e+02  1.0038400487095248e+02  1.0087348101385409e+02  1.0077277444294288e+02  1.0038777397142330e+02  9.9398237503174357e+01  1.0046529412563793e+02  9.9497559608430009e+01  1.0093730157728096e+02  9.9743279804650015e+01  1.0290554867463773e+02  1.0041139562119935e+02  1.0037561393992809e+02  1.0005678731254953e+02  9.9474103792357454e+01  9.8610690740958901e+01  9.4384107137771593e+01  1.0110228544841117e+02  1.0002459284821087e+02  9.9992174209797398e+01  9.9963926587174925e+01  1.0020986198773755e+02  9.9949722227027110e+01  9.9970514627983221e+01  1.0007198479293233e+02  1.0004313070496455e+02  9.9632743335877123e+01  9.9994475220994502e+01  9.9952371844966677e+01  1.0110537618404813e+02  1.0202965905872112e+02  1.0015104490943698e+02  1.0022792725711241e+02  1.0026847621736202e+02  9.9894224225634517e+01  9.9994284952565721e+01  9.9876370770032295e+01  1.0018788897402165e+02  9.9827012530240680e+01  1.0012740386466800e+02  9.9933143791033913e+01  9.9762838647928874e+01  9.9416540866233348e+01  1.0009019883712824e+02  1.0010177275745022e+02  9.9377746077375647e+01  9.9113613527388083e+01  9.9068453781649183e+01  9.9905147172297276e+01  9.9742335948425563e+01  1.0009254687593939e+02  1.0013820969863886e+02  1.0018424794132386e+02  9.9960390511430049e+01  1.0012807907716513e+02  9.9957325839522966e+01  1.0000556501997215e+02  9.9959542909420634e+01  1.0021514778231690e+02  9.9916445575452940e+01  1.0018288820628545e+02  9.9917441005862997e+01  1.0000263688325967e+02  9.9969521274146317e+01  9.9974304551445783e+01  1.0032393384490238e+02  9.9927994050817489e+01  1.0012365840604548e+02  1.0020731485396985e+02  9.9907491504236830e+01  9.9834279815240379e+01  1.0029446049610635e+02  9.9757092624011747e+01  9.9438225093805642e+01  9.9896193650744209e+01  1.0007372855757693e+02  1.0019936371433974e+02  1.0002365976384210e+02  9.9981036707932972e+01  9.9374205459267941e+01  1.0026867005990654e+02  9.9411851826175635e+01  9.9832357586566317e+01  1.0095404004566198e+02  1.0072392967502896e+02  9.9467058703719445e+01  9.9829700406154018e+01  1.0021421717316085e+02  1.0040984561777763e+02  9.9812209168031700e+01  9.9878993037291664e+01  1.0023492779583894e+02  1.0000532972554186e+02  9.9725030005015171e+01  1.0023932470176149e+02  1.0009278952669612e+02  1.0009565194655485e+02  1.0018738112697939e+02  9.9605729313619165e+01  1.0008589292733271e+02  1.0014553744396815e+02  9.9898371802053518e+01  1.0068911365446560e+02  9.9932811676060368e+01  1.0003987368370765e+02  1.0009808970233864e+02  9.9757566618061048e+01  1.0000662578066451e+02  1.0021801783464232e+02  9.9405994907896059e+01  1.0003568198004164e+02  1.0001809748536841e+02  9.9991026189124511e+01  9.9974124302057646e+01  9.9947011314235652e+01  9.9976566838701075e+01  1.0002517595028266e+02  1.0072194142812484e+02  1.0031059736906813e+02  1.0046614628409876e+02  9.9520453911857459e+01  9.9900980575670417e+01  1.0036378122552010e+02  1.0007077474515656e+02  9.9861189650030184e+01  1.0022484336804894e+02  1.0029565351959747e+02  9.9968861988076682e+01  1.0014898521575712e+02  9.9778048740026861e+01  9.9695324203070030e+01  1.0005658551047627e+02  9.9907359409580465e+01  1.0003163426155915e+02  1.0009615321671532e+02  1.0031925112654824e+02  1.0000372025776709e+02  9.9907966635980841e+01  1.0006598675213868e+02  1.0015201936970544e+02  9.9802003070261719e+01  9.9893589004113295e+01  9.9506004131277422e+01  1.0073562788918650e+02  1.0038832285370206e+02  9.9670786176709839e+01  1.0000897638334290e+02  1.0011324921755791e+02  1.0103029865571865e+02  1.0029654761588176e+02  1.0036679599200646e