<?xml version="1.0"?>
<VTKFile type="UnstructuredGrid"  version="0.1"  >
<UnstructuredGrid>
<Piece  NumberOfPoints="4651" NumberOfCells="20727">
<Points>
<DataArray  type="Float64"  NumberOfComponents="3"  format="ascii">-33.46713 35.789794 -27.111655  -30.985702 33.966886 -26.345189  -31.6828435 34.4395005 -24.8604795  -32.3309525 33.0809765 -25.848284  -31.194775 30.372159 -24.584913  -29.8495245 31.2580685 -25.081818  -30.546666 31.730683 -23.5971085  -29.898557 33.089207 -22.609304  -29.2014155 32.6165925 -24.0940135  -28.504274 32.143978 -25.578723  -42.132673 23.06294 -28.791295  -40.312967 22.79049625 -28.701262  -40.604459 22.0161115 -28.8988445  -40.87983025 22.384583 -28.2450985  -39.6269875 21.706226 -27.698902  -38.784753 21.74366775 -28.8088115  -39.06012425 22.11213925 -28.1550655  -39.35161625 21.3377545 -28.352648  -39.076245 20.969283 -29.006394  -38.493261 22.5180525 -28.611229  -41.2904385 23.10038175 -29.9012045  -41.56580975 23.46885325 -29.2474585  -40.9989465 23.8747665 -29.703622  -39.4707325 22.827938 -29.8111715  -39.74610375 23.1964095 -29.1574255  -40.72357525 23.506295 -30.357368  -40.448204 23.1378235 -31.011114  -41.85730175 22.6944685 -29.445041  -41.5819305 22.325997 -30.098787  -40.03759575 22.42202475 -29.355008  -40.32908775 21.64764 -29.5525905  -41.01506725 22.73191025 -30.5549505  -41.031188 21.589054 -31.406279  -39.7622245 22.05355325 -30.008754  -40.0537165 21.2791685 -30.2063365  -41.30655925 21.9575255 -30.752533  -40.739696 22.36343875 -31.2086965  -39.86522 24.686593 -30.615949  -39.17924050000001 23.60232275 -29.613589  -40.156712 23.91220825 -30.8135315  -40.43208325000001 24.28067975 -30.1597855  -37.121302 20.349512 -26.606509  -37.8072815 21.43378225 -27.608869  -38.0987735 20.6593975 -27.8064515  -38.37414475 21.027869 -27.1527055  -47.35853 10.924067 -27.817879  -45.246866 11.45253725 -28.071133  -45.66002275 11.71429875 -27.3005915  -45.6943715 10.6509055 -27.69485675  -44.030213 10.377744 -27.5718345  -43.5827075 11.17937575 -27.94811075  -43.99586425 11.44113725 -27.17756925  -43.9615155 12.5045305 -26.783304  -43.54835875000001 12.242769 -27.5538455  -43.135202 11.9810075 -28.324387  -46.9110245 11.72569875 -28.19415525  -46.46351900000001 12.5273305 -28.5704315  -44.79936050000001 12.254169 -28.44740925  -45.21251725 12.5159305 -27.67686775  -46.10752825 10.912667 -26.92431525  -44.8565265 10.901267 -26.0307515  -44.409021 11.70289875 -26.40702775  -44.44336975 10.6395055 -26.801293  -45.568508 14.130594 -29.322984  -44.351855 13.05580075 -28.8236855  -44.76501175 13.31756225 -28.053144  -46.0160135 13.32896225 -28.94670775  -42.354523 10.878467 -24.243624  -41.94136625 10.6167055 -25.0141655  -43.15801925 11.69149875 -25.513464  -43.192368 10.6281055 -25.90772925  -42.7448625 11.42973725 -26.2840055  -42.77921125 10.366344 -26.67827075  -41.5282095 10.354944 -25.784707  -43.60552475 10.889867 -25.13718775  -40.701896 9.831421000000001 -27.32579  -41.11505275 10.0931825 -26.5552485  -42.33170575 11.16797575 -27.054547  -42.3660545 10.1045825 -27.44881225  -41.918549 10.90621425 -27.8250885  -45.563908 18.348066 -26.893842  -44.34709275 17.2338565 -26.548159  -44.348079 18.1650075 -25.942861  -44.76834825 17.366726 -25.73690925  -43.9727885 16.385386 -24.5799765  -43.13126375 17.050798 -25.597178  -43.551533 16.2525165 -25.39122625  -43.55251925 17.1836675 -24.78592825  -43.13225 17.981949 -24.99188  -43.1302775 16.119647 -26.202476  -42.381669 14.422706 -22.266111  -41.54014425 15.088118 -23.2833125  -41.9604135 14.2898365 -23.07736075  -43.17722875 15.404046 -23.42304375  -42.335704 16.069458 -24.44024525  -42.75597325 15.2711765 -24.2342935  -41.539158 14.156967 -23.8886105  -41.11888875 14.9552485 -24.09456225  -40.6986195 15.75353 -24.300514  -41.96139975 15.2209875 -22.47206275  -42.7569595 16.2023275 -23.6289955  -41.5411305 16.019269 -22.6780145  -41.119875 15.8863995 -23.48926425  -40.700592 17.615832 -23.089918  -40.69960575 16.684681 -23.695216  -41.12086125 16.8175505 -22.88396625  -42.33669025 17.000609 -23.83494725  -41.91543475 16.8677395 -24.646197  -41.9144485 15.9365885 -25.251495  -41.916421 17.7988905 -24.040899  -40.696647 13.891228 -25.51111  -40.69763325 14.822379 -24.905812  -41.1179025 14.0240975 -24.69986025  -42.33471775 15.138307 -25.04554325  -41.91346224999999 15.0054375 -25.856793  -44.118743 25.302534 -23.43754  -42.76705425 24.24730275 -23.47809  -42.76993350000001 25.0813095 -22.6047665  -43.2664675 24.2066155 -22.610093  -42.414192 23.110697 -21.782646  -41.41824475 24.02607825 -22.6453165  -41.91477875 23.15138425 -22.650643  -41.917658 23.985391 -21.7773195  -41.42112400000001 24.860085 -21.771993  -41.4153655 23.1920715 -23.51864  -40.709641 20.91886 -20.127752  -39.71369375 21.83424125 -20.9904225  -40.21022775 20.95954725 -20.995749  -41.06250325 22.05546575 -21.823196  -40.06655600000001 22.970847 -22.6858665  -40.56309 22.096153 -22.691193  -39.7108145 21.0002345 -21.863746  -39.2142805 21.8749285 -21.8584195  -38.7177465 22.7496225 -21.853093  -40.21310699999999 21.793554 -20.1224255  -40.56596924999999 22.93015975 -21.8178695  -39.716573 22.668248 -20.117099  -39.21715975 22.70893525 -20.985096  -41.5619165 22.0147785 -20.955199  -41.0653825 22.8894725 -20.9498725  -40.06943525 23.80485375 -21.812543  -38.72062575 23.58362925 -20.9797695  -40.5688485 23.7641665 -20.944546  -38.711988 21.081609 -23.59974  -38.71486725 21.91561575 -22.7264165  -39.21140124999999 21.04092175 -22.731743  -40.06367675 22.13684025 -23.55919  -48.892552 15.381405 -22.559494  -48.1351425 16.07628075 -23.5791065  -48.51483450000001 15.266923 -23.38233125  -46.88513925 15.951088 -22.6829235  -44.8777265 16.520771 -22.806353  -46.12772975 16.64596375 -23.702536  -46.50742175000001 15.836606 -23.50576075  -48.137117 15.152441 -24.2051685  -47.757425 15.96179875 -24.40194375  -47.377733 16.7711565 -24.598719  -47.26483125 15.14173025 -22.48614825  -45.63711050000001 14.9020555 -22.4128025  -46.88711375 15.02724825 -23.3089855  -45.2574185 15.71141325 -22.60957775  -48.51286 16.19076275 -22.75626925  -46.50544725 16.76044575 -22.87969875  -48.133168 17.0001205 -22.9530445  -47.75545049999999 16.8856385 -23.77588175  -47.373784 18.618836 -23.346595  -47.3757585 17.69499625 -23.972657  -47.753476 17.80947825 -23.14981975  -46.12575525 17.5698035 -23.076474  -47.381682 14.923477 -25.850843  -46.13167875 14.79828425 -24.95466  -46.12970425 15.722124 -24.328598  -46.50939625 14.91276625 -24.13182275  -44.879701 15.59693125 -23.432415  -45.259393 14.7875735 -23.23563975  -44.8816755 14.6730915 -24.058477  -47.37970749999999 15.84731675 -25.224781  -47.7593995 15.037959 -25.02800575  -43.63167225 14.54789875 -23.162294  -43.62969775000001 15.4717385 -22.536232  -44.00938975 14.66238075 -22.33945675  -50.19105 12.415688 -21.510677  -48.56280674999999 11.4039275 -21.88864725  -48.8853695 11.5477145 -21.1196025  -50.19317225 11.5784405 -21.9090425  -50.1952945 10.741193 -22.307408  -48.564929 10.56668 -22.28701275  -48.88749175 10.710467 -21.517968  -47.579689 10.679741 -20.728528  -47.25712625 10.535954 -21.49757275  -46.9345635 10.392167 -22.2666175  -49.86848725 12.271901 -22.27972175  -49.8706095 11.4346535 -22.67808725  -49.5459245 12.128114 -23.0487665  -48.240244 11.2601405 -22.657692  -50.199539 9.066698000000001 -23.104139  -48.56705125 9.729432500000001 -22.68537825  -48.89173625 9.035972000000001 -22.314699  -48.889614 9.873219500000001 -21.9163335  -47.58181125 9.8424935 -21.1268935  -47.5839335 9.005246 -21.525259  -47.2592485 9.6987065 -21.89593825  -49.874854 9.760158499999999 -23.47481825  -50.19741675 9.903945499999999 -22.7057735  -49.87273175 10.597406 -23.07645275  -49.550169 10.453619 -23.8454975  -48.24236625 10.422893 -23.0560575  -48.900799 11.84054 -24.586856  -47.91768125 11.1163535 -23.42673675  -49.22548399999999 11.1470795 -24.21617675  -49.54804675 11.2908665 -23.447132  -49.22336175 11.984327 -23.81781125  -44.968328 8.943794 -19.946379  -45.95144575 9.667980500000001 -21.10649825  -46.27613075 8.97452 -20.735819  -46.2740085 9.8117675 -20.3374535  -51.756707 9.930889000000001 -18.880442  -50.74565 10.7548815 -18.9482525  -50.97927475 10.115809 -18.6811585  -51.75773275 10.6570185 -18.4585015  -51.52308225 10.5699615 -19.147536  -51.21392525 10.202866 -17.992124  -51.2894575 11.209034 -19.41463  -50.2018425 10.300729 -18.481875  -50.9803005 10.8419385 -18.259218  -50.74667574999999 11.481011 -18.526312  -51.287406 9.756774999999999 -20.258511  -50.74462425 10.028752 -19.370193  -51.28843175 10.4829045 -19.8365705  -51.5220565 9.843831999999999 -19.5694765  -50.761299 8.8242455 -17.9767735  -50.48157075 9.56248725 -18.22932425  -50.71622125 9.64954425 -17.54028975  -51.4936535 9.46462425 -17.73957325  -51.259003 9.37756725 -18.42860775  -50.789702 9.203453249999999 -19.80667675  -51.0243525 9.290510250000001 -19.11764225  -50.24692025 9.47543025 -18.91835875  -50.5266485 8.7371885 -18.665808  -50.291998 8.650131500000001 -19.3548425  -49.116279 10.844683 -16.705239  -49.16135675 10.01938425 -17.14172275  -49.65906074999999 10.572706 -17.593557  -49.938789 9.83446425 -17.34100625  -49.7041385 9.74740725 -18.03004075  -49.98386675 9.0091655 -17.77749  -49.2064345 9.1940855 -17.5782065  -49.29659 7.543488 -18.451174  -49.25151225 8.36878675 -18.01469025  -49.74921625 8.9221085 -18.4665245  -50.0289445 8.18386675 -18.21397375  -49.794294 8.09680975 -18.90300825  -43.40740425 25.48068925 -24.48671425  -42.36964775 25.01769025 -23.3772495  -43.625931 25.747322 -23.83400675  -43.133119 26.19211 -24.2304735  -41.658309 25.1958455 -24.42642375  -42.91459225 25.92547725 -24.883181  -41.87683575 25.46247825 -23.77371625  -40.6205525 24.7328465 -23.316959  -42.6960655 25.6588445 -25.5358885  -43.90021625 25.03590125 -24.0902475  -43.6816895 24.7692685 -24.742955  -43.1888775 25.2140565 -25.13942175  -42.151121 24.7510575 -24.029957  -43.244636 24.236003 -26.04837  -41.7140675 24.217792 -25.335372  -42.97035075 24.94742375 -25.792129
[...]
<PointData  Scalars="p_O2"> 
<DataArray  type="Float64"  Name="p_O2"  format="ascii">9.9197862668265955e+01  9.7099347982009164e+01  9.6311691020012361e+01  9.5350392396299739e+01  9.8392317039625567e+01  9.9552669581382048e+01  9.9455720830392849e+01  9.8998584696609100e+01  9.9105672290934137e+01  9.9285652906985831e+01  9.5486609914567595e+01  8.4882374193163500e+01  8.3988147220360815e+01  8.3903925139817545e+01  7.7693820974102749e+01  8.1371335257203299e+01  8.0324686292814249e+01  7.8957424905794880e+01  7.9904306900408727e+01  8.2222926003106309e+01  9.6524272755264477e+01  9.6276618583967021e+01  9.6374221876827974e+01  8.7271566586257521e+01  8.6642804297274381e+01  9.6598679319580114e+01  9.6832730594186259e+01  9.5643485600333790e+01  9.5880520319439327e+01  8.5628210837259800e+01  8.5216031180105645e+01  9.6390242228273593e+01  9.6349891453010628e+01  8.6446072469090453e+01  8.6108445959777058e+01  9.6026930307938102e+01  9.6671745785831902e+01  9.6881184692344945e+01  8.8383601052889873e+01  9.6604331757071364e+01  9.6243803187551080e+01  9.4866081738193785e+01  8.4663582558651655e+01  8.3275788664784059e+01  8.2137202191405848e+01  9.0925028403851087e+01  6.6452100135181936e+01  6.5212210712101978e+01  6.5807355786547646e+01  5.3095567501983652e+01  5.6340950022163433e+01  5.4476694008213364e+01  5.3769235613882010e+01  5.6247869995273618e+01  5.8394571415074466e+01  9.1529642515846859e+01  9.1147612614803066e+01  6.8941190274931444e+01  6.8263075265611135e+01  6.5118004544077806e+01  4.9138890050147026e+01  5.1941317270898026e+01  5.1664385001000817e+01  9.2851993683397993e+01  7.1100704495852341e+01  6.9418171751234681e+01  9.2029940235586650e+01  8.7762868495592869e+01  8.8816697516312971e+01  6.0375589904865592e+01  5.9480441327528816e+01  6.2719472242062004e+01  6.2491341073849391e+01  8.9051007549022216e+01  5.8127887499532896e+01  9.0449568817805783e+01  9.0460420700276401e+01  6.4389118972255545e+01  6.3424894073316899e+01  6.5774411750061248e+01  9.2842780518903382e+01  7.1302039865230725e+01  7.1641483783741151e+01  6.9245877859485290e+01  5.3622996916559671e+01  5.9584734601969878e+01  5.6330993503325502e+01  5.6614810648771417e+01  5.8877440201646699e+01  5.8499748318715071e+01  8.7689886294023452e+01  8.9458909052236734e+01  8.8800980722247431e+01  6.0234872230630302e+01  6.4931784600224915e+01  6.2624173095807620e+01  8.9056272003779242e+01  9.0245160331691565e+01  9.0528809012628685e+01  8.8691528704843009e+01  6.3063225364838736e+01  8.8961114516985759e+01  9.0195441130683562e+01  9.0386051862993867e+01  9.0985386016286185e+01  9.0465196574924633e+01  6.4187678800028294e+01  6.6170376437696873e+01  6.7543347209480402e+01  6.6902725757596428e+01  9.0404956491828699e+01  9.0994296423722744e+01  9.0448175041271298e+01  6.4315839919645242e+01  6.5979050837895571e+01  9.3923116537757224e+01  7.6779941634343999e+01  7.7463860910476171e+01  7.5430764242370287e+01  6.2828591555073501e+01  6.9399744456978652e+01  6.6038614644556290e+01  6.6002997612617207e+01  6.8563208769845090e+01  6.8534741177905602e+01  9.0371406531327523e+01  9.1790930445134322e+01  9.1159224503513613e+01  7.1316876301244022e+01  7.6378163308033166e+01  7.3917934459900763e+01  9.2022698950346921e+01  9.2824733996545632e+01  9.3422338229001014e+01  9.1285804234418151e+01  7.3819532816376395e+01  9.1984696512115789e+01  9.2599459661331579e+01  6.8803003063192506e+01  7.1605113507947792e+01  7.5379525291528964e+01  9.4016660941705581e+01  7.3032328196456874e+01  9.3114360988081472e+01  9.3904704178344787e+01  9.3090463278749922e+01  7.5189834906279984e+01  8.8655376148857556e+01  9.0787559382794612e+01  8.9350163973535800e+01  5.9767240855828561e+01  4.8466327490801824e+01  6.3916060040498827e+01  6.1581304157039597e+01  8.9499116882146936e+01  9.0400045501030547e+01  9.0420786127904947e+01  5.8807578937493254e+01  4.4849680726566270e+01  6.1027521011843156e+01  4.7345612895329211e+01  8.9593459818917879e+01  6.1891905791377418e+01  8.9608805760393366e+01  8.9956444714105530e+01  9.0525766600366765e+01  9.0967110391666111e+01  9.0169704406440331e+01  6.4219945580300916e+01  9.0565405611606664e+01  6.5051149888129061e+01  6.3111496605030482e+01  6.2082886165543748e+01  4.9885714667054295e+01  4.7249381432369880e+01  4.8946497813323660e+01  9.0693889585490211e+01  9.0064860723560500e+01  5.7949990269641589e+01  5.6861461743909672e+01  5.4764605512093304e+01  8.4748932186309261e+01  5.1081674109984135e+01  4.9127092985819615e+01  8.5660613216348338e+01  8.4213270115749694e+01  5.1477662016952230e+01  4.9839944880132443e+01  3.9503180368701734e+01  4.0531567982955153e+01  4.0595877824245392e+01  8.6347272851693205e+01  8.5873430721286724e+01  8.6732624434077451e+01  5.3437850348934077e+01  8.4867773349106386e+01  5.1266993800634403e+01  5.0612457421126123e+01  4.9124365468319411e+01  4.0720116066214075e+01  3.9992471695101514e+01  4.0835522532235572e+01  8.6788599068509342e+01  8.5718602178593528e+01  8.6134832573101349e+01  8.7149761378601525e+01  5.3962445117915358e+01  8.8703096264952308e+01  5.5545494561330017e+01  8.8089187680480549e+01  8.7605282274904170e+01  8.8006692410439811e+01  7.4662485259192707e+01  4.3226843219354464e+01  4.2889978814905618e+01  4.1565294558413434e+01  7.2236886277836078e+01  5.2717542072506340e+01  5.0284758801844809e+01  7.1023431150759706e+01  7.6254058717583234e+01  4.3364329773096443e+01  7.8124218043296594e+01  4.0753390280768372e+01  4.9091213506314766e+01  5.1569210954780047e+01  7.6938876067758002e+01  5.2186746946437090e+01  7.9691868058688087e+01  7.6078747100181516e+01  4.0000000000000000e+01  4.0991180739872178e+01  4.0000000000000000e+01  4.0000000000000000e+01  4.6426809039356137e+01  5.4456357640207976e+01  5.0097902158144805e+01  4.2959995548936256e+01  4.1640458320478508e+01  4.2483683218249254e+01  4.0000000000000000e+01  4.0000000000000000e+01  4.0454855706976836e+01  4.0000000000000000e+01  4.0535808957274270e+01  4.0000000000000000e+01  4.0000000000000000e+01  4.0000000000000000e+01  4.0000000000000000e+01  4.1059799116114043e+01  4.0000000000000000e+01  4.0787135701337832e+01  9.5045946747614295e+01  7.8019531419503338e+01  9.4613925502566374e+01  9.4686039219954765e+01  8.0567632075063969e+01  9.4976480479603921e+01  7.9993218778846639e+01  7.2678560101793877e+01  9.5119936894854860e+01  9.3995901620595632e+01  9.4126693265991122e+01  9.4788674259105392e+01  7.8681255743378415e+01  9.4588031784621620e+01  8.0455826042625887e+01  9.5090158466747297e+01  7.9476404912859394e+01  7.3961298993098140e+01  8.1657533139690202e+01  7.4931028135445615e+01  9.4312128588910767e+01  9.5480380547951057e+01  8.3895674514493223e+01  8.2458815541913651e+01  8.1776848652368955e+01  7.6562826660709334e+01  7.5450210404065601e+01  7.7690231212234352e+01  9.5218458476976636e+01  9.5002435243491490e+01  9.4876094918260677e+01  8.2140921876690115e+01  8.0734482466800557e+01  7.9672837172672985e+01  9.6902162921457972e+01  8.9355577580798752e+01  9.0413174446185451e+01  8.9016274409689331e+01  8.3909938541209215e+01  8.5244685436710142e+01  8.6026810085209434e+01  8.7804888665123343e+01  8.6983611314739733e+01  8.5979097790087081e+01  9.7312426777256221e+01  9.7869274191308605e+01  9.0073878929120411e+01  9.0961337385858428e+01  9.7270646686681516e+01  9.0984913671416066e+01  9.1842889067488500e+01  8.9265240974638004e+01  9.7066775065376973e+01  9.0616762397828339e+01  9.1187385064499693e+01  9.7288030027332624e+01  9.6151591029591344e+01  9.6324756930508059e+01  8.7764876444780967e+01  8.8575116037001749e+01  9.0308952706748258e+01  8.9627665544612199e+01  9.6396376354297800e+01  8.6535104311002442e+01  9.7636033797359147e+01  4.9182502389170267e+01  6.3455063537593901e+01  4.2190775364529863e+01  4.0671798114924513e+01  4.2347319628512132e+01  4.5098079415491085e+01  3.9600659667884180e+01  3.9874985523313306e+01  3.9905965344913781e+01  4.0504276918479000e+01  4.0393295629681617e+01  4.0517164416338730e+01  3.9251256454048580e+01  4.0057829461963458e+01  3.9240007858819951e+01  4.0440705589952898e+01  4.0323247653943206e+01  4.1093606870064988e+01  4.8372066363647384e+01  7.7850389401775900e+01  4.1475554303023742e+01  4.2797880390802973e+01  7.5162503775641269e+01  4.8548734633196332e+01  4.8306329343548086e+01  7.4701674866824234e+01  4.8577820774421681e+01  7.7755882279337911e+01  4.1021126440058040e+01  4.0000000000000000e+01  6.2234728110480994e+01  3.9275047316256661e+01  6.9399601788109834e+01  7.4933515776221029e+01  4.7612439084391859e+01  7.1479902644357949e+01  4.6957285958220162e+01  6.4397682643360568e+01  7.4905327564218879e+01  7.1872222938493948e+01  4.1059186604604669e+01  4.8039197275287840e+01  4.0000000000000000e+01  4.0140762138579930e+01  3.9554522440517964e+01  4.0000000000000000e+01  4.0000000000000000e+01  7.5320004958500590e+01  7.4873324594840469e+01  7.3704933571653768e+01  8.1902708299369223e+01  8.1305889618485324e+01  8.0025167146252585e+01  9.5101155363470653e+01  9.5602104240501561e+01  9.5839877286019018e+01  8.2777640662760021e+01  9.5986182997969536e+01  9.5267117043564966e+01  8.2280067218709462e+01  9.3909549369639791e+01  7.7453549275619636e+01  7.7985355634621627e+01  7.8390500519003439e+01  7.3745433179775858e+01  7.1089899936813509e+01  7.1442652450074348e+01  7.3329027167970807e+01  7.2641307357471675e+01  6.8560506427762462e+01  9.4602836325380153e+01  8.0240095842842564e+01  9.4676383321176061e+01  7.9973411227305576e+01  8.1771313211238223e+01  8.2307918501921293e+01  7.5432746667618943e+01  7.6045229657139629e+01  9.5006565880105271e+01  7.6923727272755599e+01  9.3789075996452027e+01  7.7548830123818959e+01  7.8812869815205957e+01  7.9541654248089444e+01  9.4226125640460040e+01  7.5083239248124485e+01  7.9646273865035326e+01  9.4922456589460651e+01  8.0442786071297419e+01  9.9527574222607754e+01  9.7884624861488490e+01  9.7933113480497994e+01  9.6596898942424104e+01  9.9734903276568403e+01  9.9636800430460070e+01  9.8459753876707197e+01  9.8997588620812579e+01  9.9714515584444058e+01  9.9456122457680962e+01  9.7345863752392816e+01  9.4365126876607334e+01  9.1254850741604059e+01  9.3192010057715095e+01  9.8150021289624334e+01  8.9327254084928327e+01  9.8607814912353447e+01  9.6629176506929724e+01  9.2868221934606112e+01  9.1000997058497589e+01  9.3089110226968501e+01  9.8350462211728384e+01  9.7721063871361338e+01  9.3435981998715903e+01  9.1817670849216555e+01  9.1078869315626790e+01  9.1142875158659507e+01  9.0324361566183200e+01  8.5945113834812972e+01  8.7026073531799426e+01  8.7902174663391506e+01  9.6632881624741501e+01  8.9275579302984340e+01  8.9842891013044252e+01  9.7762735615690502e+01  9.8003344186933546e+01  9.3580746668234923e+01  9.8847525975510123e+01  9.8567173596070603e+01  9.8314494417685765e+01  9.1695560022951113e+01  9.9010500961230704e+01  9.4657178003384999e+01  8.0754826687661563e+01  8.0487784551120996e+01  7.9934619517958652e+01  7.0984501032076977e+01  7.4015763911565116e+01  7.3377076816131648e+01  7.4915581268818840e+01  7.5656325919209962e+01  7.6249470607652299e+01  9.5722545828296134e+01  9.5599088121828416e+01  8.2882528582795146e+01  8.2135987756156723e+01  9.6371666816571889e+01  8.6124471811125360e+01  8.4805553967178028e+01  8.4416809508694371e+01  7.8424428750618276e+01  7.7747583863820125e+01  7.9900970131481984e+01  9.5617990908905185e+01  9.3031069699859671e+01  9.3866487745554409e+01  7.8942043974513837e+01  7.7887495197566849e+01  8.0696355366352577e+01  8.0036279476512888e+01  9.4305151129817091e+01  7.6372013623424479e+01  9.4850239662165308e+01  9.5122627640534589e+01  8.1791162157847964e+01  8.0654960720232054e+01  8.3249332267602284e+01  9.9590605071986928e+01  9.8657629643485564e+01  9.8692464637190355e+01  9.7546386518061823e+01  9.9869484613364236e+01  9.9845972562104890e+01  9.9035306520619997e+01  9.9299826340937585e+01  9.9846621159764126e+01  9.9741487146282822e+01  9.1305007938972906e+01  9.3160823473148639e+01  9.0667101175533375e+01  9.8538337422214013e+01  9.8631146744647268e+01  9.4017802982837878e+01  9.6820615887637203e+01  9.8687285016778489e+01  9.8623993792054662e+01  9.0010011834179480e+01  8.5197338286750309e+01  8.7093802221797944e+01  8.6150182498303309e+01  9.6411741692492114e+01  8.9419216689931659e+01  9.6821136591802158e+01  9.6432245054733045e+01  8.7671053924737393e+01  9.6621052961416723e+01  9.7653250334939159e+01  8.9834089495801393e+01  9.7406993005764434e+01  9.7311921098741706e+01  8.8291932371822881e+01  8.8891204927081006e+01  9.7961905896799067e+01  9.3665970690991728e+01  9.3041799917326259e+01  9.2195874295102513e+01  9.8961561090868003e+01  9.8639328112186206e+01  9.8123439144263003e+01  9.8506487254007794e+01  9.8957150282256023e+01  9.7613052245392453e+01  9.9476094518159130e+01  9.7903592737220080e+01  9.7924961840740622e+01  9.6631137200926801e+01  9.9658460948694582e+01  9.8513413371206198e+01  9.8974864292886934e+01  9.9724308817628142e+01  9.9470135520579873e+01  9.5243090607704161e+01  9.8935402502150481e+01  9.8889667049018698e+01  9.9002588675114751e+01  9.5792977573480229e+01  9.9368336373647168e+01  9.9294035405763267e+01  9.6674264282946808e+01  6.5185425128771200e+01  6.2489896516112218e+01  4.9746204503130834e+01  4.7051318743035438e+01  4.5207174352401957e+01  4.7573480187655136e+01  4.9082034221647589e+01  8.3970883222657363e+01  5.1415980540740314e+01  8.6964202048390135e+01  8.5845491028777971e+01  8.6228932631916791e+01  5.3765117155123207e+01  8.7494320988634030e+01  8.7876845648332491e+01  5.6033337367599749e+01  8.5766651240877366e+01  8.7446550382553070e+01  5.4481410660958907e+01  8.6163747431480886e+01  8.7743349056467139e+01  8.7796913208678191e+01  5.5369188121976102e+01  8.8405502084761181e+01  5.7139380377769598e+01  5.8755402239617567e+01  5.8076099904601868e+01  5.5408778941814163e+01  8.8384251445568481e+01  8.7730953386136633e+01  7.8392090862070290e+01  7.1422397483482001e+01  7.1110763968869961e+01  7.3326525662242162e+01  8.0223021842375630e+01  7.6022423676211787e+01  7.8834470041325403e+01  7.6930910812681603e+01  7.9526354423629542e+01  7.7511233264187084e+01  9.4237521593289969e+01  9.4933227298164908e+01  8.0433880225892878e+01  8.7800486913103825e+01  8.7093721873205595e+01  8.7001125859725022e+01  8.1912330751337663e+01  8.5259388627131273e+01  8.4296768227539431e+01  8.3030110515290147e+01  8.3919345105015196e+01  8.6006286267263590e+01  9.7228424400992012e+01  9.7082609591553208e+01  9.7182491698282817e+01  9.0108871240326181e+01  8.9458932047027290e+01  9.7464270592338821e+01  9.7881945266959065e+01  9.6484276884471043e+01  9.6778323289224744e+01  8.8551937335370212e+01  8.8218097396678871e+01  9.7054400605863862e+01  9.6909838276232023e+01  8.9389671806913071e+01  8.9051841984031512e+01  9.6640918158464686e+01  9.7313614460295284e+01  9.7337578135151588e+01  9.1073952172971843e+01  9.7306100156423469e+01  9.6660301876562812e+01  9.6111539036561581e+01  8.7737207024515826e+01  8.6492023926487903e+01  8.5555999603185143e+01  8.4819663384023201e+01  7.9648073896325954e+01  7.8445775187138054e+01  8.1029047054599403e+01  7.6310016274159366e+01  9.3103292742404790e+01  9.3392338850159959e+01  9.3893526837447254e+01  7.9028946319687805e+01  8.2036592936779158e+01  8.0763217499249748e+01  9.4312762682494082e+01  9.4411771305877636e+01  9.4535733830819055e+01  9.5492740977779775e+01  9.5381060190974651e+01  8.1850038427787695e+01  8.2744075181856218e+01  9.5341548580075653e+01  9.5255524727941889e+01  8.4435046364788064e+01  9.5144635999715717e+01  9.6279293097896812e+01  9.6058218409021521e+01  8.3294198696946950e+01  8.4731339335385712e+01  9.5482243494888721e+01  8.2294052929681982e+01  8.4033823857310196e+01  8.2801606820287205e+01  7.6994934777436313e+01  7.5185429525883706e+01  7.8093954695303339e+01  7.9457361327295146e+01  7.3730608218635325e+01  9.5842643355806857e+01  8.3770136250765020e+01  9.6000326324767272e+01  8.5075810213158022e+01  8.5786005865736684e+01  8.0866345540101221e+01  9.6081289145184414e+01  8.0487282619806535e+01  8.2979967410234849e+01  7.7528377834017633e+01  8.4150244755311903e+01  9.7957185270889042e+01  9.1202445979584397e+01  9.3000177925304669e+01  9.0237025542749279e+01  9.8565629202382723e+01  9.8614460413261895e+01  9.3941432283255224e+01  9.7125644812142099e+01  9.8817715624258895e+01  9.8608422915496490e+01  9.9302140200697679e+01  9.7039861093413236e+01  9.6675308441313888e+01  9.5345834814980108e+01  9.9463062688754547e+01  9.9386977306605061e+01  9.9075115947734034e+01  9.9657781101066831e+01  9.8323124933406049e+01  9.7749440428482515e+01  9.7960047693865391e+01  9.8953691926166172e+01  9.9568689424369126e+01  9.9540616213892747e+01  9.9067446692284776e+01  9.9354487276240533e+01  9.9601789458208629e+01  8.9312893794740859e+01  9.8267261555530254e+01  9.7387912452052944e+01  9.5450316503241510e+01  9.5153370549821148e+01  9.4260041599172837e+01  9.9278504373414492e+01  9.8950848958674598e+01  9.8933357972575493e+01  9.8992644133107959e+01  9.9204612111566121e+01  9.8460929105161270e+01  9.6829047796950107e+01  9.9256733499358702e+01  9.9482052437322594e+01  9.5367758177075885e+01  9.9366081269546100e+01  9.4585663667528564e+01  8.0075020988024590e+01  8.0449727937888014e+01  8.0767843508822125e+01  7.3361864794031490e+01  7.4055866860865748e+01  7.5677335381187532e+01  7.4908061581350864e+01  7.0957271228975557e+01  9.5623684558823399e+01  8.2119301239506953e+01  8.2901444928138957e+01  9.5561495873445736e+01  8.4398701466764578e+01  7.7742630855689939e+01  9.5592555499329990e+01  7.7964427253272433e+01  8.0089143072827454e+01  7.6478835637204909e+01  8.0704894087581224e+01  9.5487553209423396e+01  8.4062226796605373e+01  8.4892682380592234e+01  8.3906325548782490e+01  7.7631956722918943e+01  7.8695336904055353e+01  8.0280326830429715e+01  8.2197477000578218e+01  8.0920476887316823e+01  7.9446305579697707e+01  9.6269291260844838e+01  8.5429288885207612e+01  8.6643687446552434e+01  9.6373883971092198e+01  9.6946784880158020e+01  8.9048712053885339e+01  8.7570267887780702e+01  8.8364546700141872e+01  8.2008883432975168e+01  8.3191841598548464e+01  8.3895583417693899e+01  9.6226746568186869e+01  9.4917764417422916e+01  8.2847380587312529e+01  9.5363240901831517e+01  8.4850551999451497e+01  8.5228387405755072e+01  9.5268329884119908e+01  8.4099629229264821e+01  8.2141573612676154e+01  9.6116622810647414e+01  8.4090157485296899e+01  9.6033507607833698e+01  8.5792110253279546e+01  8.6439169921381534e+01  9.7242964712990030e+01  9.1789219313068557e+01  9.1107502665195355e+01  8.9410571842657760e+01  9.0928126604931222e+01  9.0641927912236511e+01  8.5998396680312140e+01  8.7052028784461442e+01  8.7896217156173520e+01  9.6398241500832441e+01  8.7720676242898605e+01  9.6287478275816625e+01  9.6382261542424189e+01  8.8651990250779107e+01  9.6705137260727653e+01  8.9619793440555497e+01  9.6495071920292034e+01  9.6601406349683913e+01  8.9179084923342714e+01  9.7643222140636169e+01  9.7628174644465190e+01  9.7618492768177916e+01  8.9720593989005536e+01  9.7504883575076846e+01  5.8419506438442816e+01  4.6096458416429023e+01  6.1024081589495680e+01  5.8020898709885785e+01  4.4355598223541158e+01  4.2649541266302819e+01  4.4465362559433764e+01  5.0913413280212843e+01  5.3808613016644593e+01  4.9625473777215177e+01  8.4016829050735410e+01  9.6262688773860631e+01  9.6345364254315569e+01  9.6192662054535035e+01  8.5415766569087282e+01  7.9487917617610648e+01  8.5074322919443730e+01  8.0895933140157226e+01  8.2042723440495109e+01  8.7084704344849911e+01  8.3037884203153268e+01  8.1928203666839238e+01  9.6359904196964479e+01  9.6479389734949208e+01  8.5779910741121526e+01  8.6403495304379675e+01  8.8193404660705525e+01  9.6772203219164794e+01  9.6319428732826282e+01  9.6611026205015207e+01  9.6621944165024644e+01  8.7546918192576342e+01  9.6212639297376811e+01  8.5604339605214960e+01  8.4201840104685729e+01  9.9556966259658793e+01  9.7464420941607514e+01  9.7636729819192283e+01  9.6824792466842752e