<?xml version="1.0"?>
<VTKFile type="UnstructuredGrid"  version="0.1"  >
<UnstructuredGrid>
<Piece  NumberOfPoints="5242" NumberOfCells="20352">
<Points>
<DataArray  type="Float64"  NumberOfComponents="3"  format="ascii">-25.239911 -24.08747 43.803432  -21.6686365 -22.6669505 42.70525  -22.9306035 -23.425443 45.3622555  -23.73629 -24.612647 44.317103  -24.4342245 -22.900266 44.8485845  -23.628538 -21.713062 45.893737  -22.232669 -25.137824 44.830774  -20.803665 -21.516462 43.7105625  -22.366571 -20.9545695 43.2367315  -22.065632 -22.2749545 46.36756800000001  -21.3676975 -23.9873355 45.8360865  -20.502726 -22.836847 46.841399  -21.104604 -20.196077 40.579726  -22.475967 -23.8875965 41.594702  -24.531781 -25.7608375 43.207807  -23.823651 -27.434205 42.612182  -23.02816 -26.2860145 43.721478  -21.7688895 -25.610771 40.962615  -20.9733985 -24.4625805 42.071911  -19.714128 -23.787337 39.313048  -13.924031 -24.56825 48.358272  -12.071611 -24.519848 45.3729825  -12.3123945 -24.6777375 48.71017399999999  -12.9540105 -26.0306775 47.8250295  -11.98399 -27.493105 47.291787  -10.4599745 -24.6293355 45.7248845  -11.1015905 -25.9822755 44.83974  -11.342374 -26.140165 48.17693149999999  -10.700758 -24.787225 49.062076  -10.219191 -24.471446 42.387693  -19.110931 -26.056109 45.736763  -17.2119455 -26.736463 44.3061645  -16.5475455 -25.057353 43.638716  -17.9864315 -25.4752655 42.843009  -16.861932 -24.894422 39.949255  -16.087446 -26.1556195 41.4124105  -15.423046 -24.4765095 40.744962  -13.98416 -24.058597 41.540669  -14.64856 -25.737707 42.2081175  -15.31296 -27.416817 42.875566  -17.330295 -26.7816635 45.9852645  -15.549659 -27.507218 46.233766  -15.4313095 -27.4620175 44.554666  -14.7669095 -25.7829075 43.88721750000001  -18.605424 -27.428279 45.11094850000001  -18.099917 -28.800449 44.485134  -16.7064385 -28.108633 43.68035  -17.4809245 -26.8474355 42.21719450000001  -18.423523 -23.675553 43.6767535  -17.736115 -21.294997 41.616744  -15.8601375 -22.676797 41.5787065  -17.2990235 -23.0947095 40.7829995  -16.824788 -28.1538335 45.35945  -14.468446 -25.838872 40.222831  -15.907332 -26.2567845 39.427124  -14.952732 -27.619147 38.904993  -15.132846 -27.517982 40.8902795  -16.5263245 -28.209798 41.6950635  -8.736791999999999 -27.313413 48.100374  -6.152974 -25.424928 46.0844805  -7.2758185 -24.5214075 46.405513  -7.735716 -25.7255165 45.6836095  -7.15405 -27.0128245 48.501245  -8.276894499999999 -26.109304 48.8222775  -7.816997 -24.905195 49.544181  -6.6941525 -25.8087155 49.2231485  -5.571308 -26.712236 48.902116  -6.73464 -24.13762 43.266845  -9.902760000000001 -27.201167 44.3684245  -11.524897 -27.429283 43.821256  -10.7851595 -28.7119965 46.8204715  -12.4072965 -28.9401125 46.273303  -12.830603 -30.38712 45.254819  -11.208466 -30.159004 45.8019875  -9.586328999999999 -29.930888 46.349156  -12.974194 -22.8682575 46.01557  -13.9540955 -24.3134235 44.9494705  -14.425332 -22.5687235 45.7087885  -14.926633 -20.569197 43.059305  -13.0042585 -22.613431 42.6067685  -13.475495 -20.868731 43.3660865  -14.4553965 -22.313897 42.299987  -12.024357 -21.168265 43.672868  -20.1199605 -20.061806 44.70221100000001  -21.6828665 -19.4999135 44.22838  -20.4208995 -18.741421 41.5713745  -19.737195 -17.286765 42.563023  -18.6274455 -20.2563415 45.254903  -19.1194205 -22.065922 44.2290715  -18.24468 -17.4813005 43.115715  -18.736655 -19.290881 42.0898835  -17.24414 -19.4854165 42.6425755  -16.752165 -17.675836 43.668407  -19.4203595 -20.745537 41.098235  -13.4073815 -27.2228585 43.397744  -12.984075 -25.775851 44.416228  -12.1016755 -24.2650215 41.964181  -14.736845 -26.037734 47.296019  -13.7668245 -27.5001615 46.7627765  -8.348084999999999 -23.0835965 46.9592925  -8.717699 -24.4624225 46.1644605  -9.789965500000001 -23.0246115 46.71823999999999  -9.258877500000001 -24.84621 49.3031285  -8.879173 -21.261998 44.374404  -7.8069065 -22.699809 43.8206245  -9.718775000000001 -26.050319 48.581225  -8.4769155 -24.304533 42.827269  -9.549182 -22.866722 43.3810485  -9.4779915 -25.8924295 45.2440335  -10.360391 -27.403259 47.6960805  -9.1615605 -28.6221505 47.224765  -8.160484499999999 -27.034254 44.80800050000001  -19.984392 -23.2164105 43.223759  -19.4125295 -24.921723 42.5249055  -18.28803 -24.3408795 39.6311515  -18.7251215 -22.541167 40.464896  -20.2947155 -26.0114945 41.4680445  -21.553986 -26.686738 44.2269075  -20.6718 -25.5969665 45.2837685  -20.875303 -28.235652 43.623041  -19.993117 -27.1458805 44.679902  -18.8686175 -26.565037 41.786148  -19.5267215 -27.683436 40.7419995  -18.946134 -25.4592785 38.587003  -18.17814 -27.13122 37.860958  -17.520036 -26.012821 38.9051065  -17.018782 -23.312653 44.398034  -17.7146795 -21.703022 44.950352  -19.8068285 -24.446478 46.289081  -16.331374 -20.932097 42.3380245  -18.8657615 -23.363507 47.23471050000001  -18.169864 -24.973138 46.68239250000001  -17.228797 -23.890167 47.628022  -16.077715 -22.229682 45.34366350000001  -15.6064785 -23.974382 44.5843455  -8.692553499999999 -28.801179 43.6286045  -7.266709000000001 -25.904545 42.08744900000001  -9.0089845 -26.071458 41.647873  -7.798778 -27.67147 40.908053  -20.409366 -21.991707 39.946387  -16.389228 -25.6986925 46.930894  -15.576414 -24.2292085 47.993147  -14.190131 -28.947169 45.7442925  -18.1390285 -27.9658345 41.173046  -19.48761 -28.5180505 44.0540875  -13.4547855 -27.524217 41.450356  -12.7903855 -25.845107 40.7829075  -13.2746715 -27.625382 39.4650695  -11.596611 -27.631617 40.025146  -15.920365 -30.913824 43.896213  -15.6166625 -29.1653205 43.3858895  -13.758488 -29.2727205 41.9606795  -15.4365485 -29.2664855 41.400603  -15.735012 -29.210521 45.0649895  -17.010141 -29.8571365 44.1906735  -22.227862 -30.633569 41.273558  -21.0478525 -27.174644 40.303225  -20.203001 -28.8823945 39.567258  -21.5515825 -29.4346105 42.4482995  -11.121774 -22.8198555 43.0302805  -10.59147 -28.7812525 43.187151  -9.697694500000001 -27.6515435 40.4665995  -10.907901 -26.0515315 41.2064195  -22.349477 -27.8349285 43.1176115  -12.213607 -29.0093685 42.6399825  -20.003809 -29.655037 43.0502515  -19.132315 -31.074422 42.477462  -18.6552275 -29.102821 40.16921  -18.616116 -29.9374355 43.481298  -20.6800885 -30.8539955 41.87551000000001  -11.3625575 -22.977745 46.367472  -10.451765 -21.2151315 44.023636  -17.0425235 -29.3467845 40.6912275  -16.565436 -27.3751835 38.3829755  -17.52634 -30.994123 43.1868375  -15.839399 -19.1225165 43.363856  -14.0717815 -28.9019685 44.06519249999999  -14.375484 -30.650472 44.575516  -6.38484 -29.432598 47.21182  -4.872836 -26.5724105 45.5691375  -5.279602 -27.9325915 44.7239895  -6.55974 -26.785109 45.2393325  -5.978073999999999 -28.072417 48.056968  -5.454502 -25.2851025 42.751502  -4.174364 -26.432585 42.236159  -3.266579 -26.109534 45.98360700000001  -4.4575305 -25.0442725 46.487207  -4.3803565 -27.7774975 48.398516  -3.189405 -28.842759 47.894916  -3.6818845 -27.637672 45.0655375  -3.7590585 -24.904447 43.1542285  -3.343753 -23.376309 44.072298  -5.0391965 -23.7569645 43.6695715  0.118056 -28.265479 48.343032  -0.6723475 -28.370771 44.7458475  1.169926 -28.713006 44.477795  -0.1879085 -27.009908 45.5985445  -0.366383 -29.626342 47.490335  1.654365 -27.352143 45.330492  -0.850822 -30.987205 46.637638  3.190674 -26.438807 42.317952  1.3484005 -26.096572 42.5860045  -0.493873 -25.754337 42.854057  2.415865 -30.506044 46.899306  2.8032695 -28.4724255 44.608629  1.2669605 -29.3857615 47.621169  0.7825215000000001 -30.7466245 46.768472  0.391337 -30.1212495 43.5762835  2.0246805 -29.880669 43.7071175  2.412085 -27.8470505 41.4164405  1.633496 -29.255294 40.514929  0.5698115 -27.5048155 41.684493  -2.42663 -26.007081 49.535272  -1.4602515 -25.880709 46.1946645  -1.154287 -27.13628 48.939152  -2.8080175 -27.42492 48.715094  -1.841639 -27.298548 45.3744865  -1.5356745 -28.554119 48.118974  3.3654555 -27.1420035 45.3876345  2.978051 -29.175622 47.67831150000001  3.540237 -27.8452 48.457317  1.8291465 -28.0553395 48.40017450000001  -7.560815999999999 -28.3730055 47.656097  6.941905 -27.457441 48.310443  4.227537 -25.7955855 46.0917165  5.0662895 -26.948124 45.3141975  5.928371 -25.601706 46.0182795  5.241071 -27.6513205 48.38388  4.914837 -23.745971 43.726116  4.0527555 -25.092389 43.022034  4.6456015 -28.936185 47.687641  6.3464355 -28.7423055 47.614204  5.750966 -30.02717 46.917965  4.47082 -28.2329885 44.6179585  6.663752000000001 -26.8982645 45.164009  6.0682825 -28.183129 44.46777  6.385599 -26.339088 42.017575  4.7881365 -26.3889475 42.1677635  5.650218000000001 -25.0425295 42.8718455  9.093743999999999 -29.444295 46.758286  7.7396715 -27.8916915 44.3879305  8.5164075 -26.520543 45.05956399999999  8.0178245 -28.450868 47.5343645  7.440488 -25.527116 45.8356425  7.939071 -23.596791 43.360842  7.162335000000001 -24.9679395 42.6892085  10.272132 -26.770447 48.10225  9.105601499999999 -25.183619 45.73154599999999  8.607018499999999 -27.113944 48.2063465  9.682938 -28.107371 47.430268  9.255521 -27.799327 44.159326  9.417298000000001 -26.154359 41.560366  7.901448500000001 -26.2467235 41.7889705  8.6781845 -24.875575 42.460604  9.844715000000001 -26.462403 44.831308  -1.918813 -24.565323 43.4631775  -2.3341185 -26.093461 42.545108  -7.9855845 -29.681743 46.78048800000001  -7.091809 -28.552034 44.05993650000001  -5.986571 -27.0520275 41.57210600000001  7.1365435 -29.181041 43.6379465  8.550743499999999 -29.1174045 43.4227355  8.490615999999999 -30.7336445 46.008302  7.887488 -32.022994 45.258318  7.947615499999999 -30.406754 42.6727515  8.007743 -28.790514 40.087185  7.196671 -27.564801 41.05238  -2.0201135 -29.914982 47.266277  3.89467 -29.4918175 43.828815  5.364838499999999 -29.5493495 43.645975  5.174816 -31.285999 46.1288215  4.598666 -32.544828 45.339678  4.788688499999999 -30.8081785 42.8568315  4.978711 -29.071529 40.373985  4.0846925 -27.755168 41.3459685  6.4330995 -30.5472615 42.8161515  6.243077 -32.283911 45.298998  6.819227 -31.025082 46.08814150000001  -4.7871225 -29.1376785 47.55336800000001  3.116081 -30.900061 42.9273035  3.5072655 -31.5
[...]
<PointData  Scalars="p_O2"> 
<DataArray  type="Float64"  Name="p_O2"  format="ascii">9.9849280876141847e+01  9.9530969788586475e+01  1.0003547832426067e+02  9.9952046039207531e+01  9.9883952263801149e+01  9.9888375975722965e+01  9.9978031376790895e+01  9.9960160922919044e+01  9.9626934980037149e+01  9.9946863770784589e+01  9.9997189518089812e+01  9.9962185428443604e+01  1.0011127020387227e+02  1.0004984758670122e+02  1.0000331955771476e+02  9.9984519981366049e+01  9.9993047544054548e+01  9.9399899662147533e+01  9.9905363368747913e+01  9.9924980317128885e+01  9.9802780023203496e+01  9.9811521259724202e+01  1.0022117183581287e+02  1.0015120656650706e+02  9.9561739871118704e+01  1.0009100243721177e+02  9.9805430338825943e+01  1.0025454966640024e+02  9.9654055133675612e+01  1.0012491591980934e+02  1.0011063572991836e+02  9.9864789042107887e+01  9.9780405533306691e+01  9.9736018391320783e+01  9.9664021706716895e+01  1.0065362577744338e+02  1.0061186036080316e+02  1.0009889344168684e+02  9.9733440093912094e+01  9.9894843323052953e+01  9.9890073496179767e+01  9.9868885454241180e+01  9.9952601528534785e+01  9.9872237733922830e+01  1.0021500914518293e+02  1.0013835543998636e+02  9.9484483082679759e+01  9.9859379368753679e+01  9.9706314501851281e+01  1.0025263573028543e+02  9.9921610853700003e+01  9.9857603573309163e+01  9.9561113214170689e+01  9.9594063020055486e+01  1.0010569047863532e+02  9.9597847237467093e+01  1.0000952370982105e+02  9.9927038266622134e+01  9.9762220477842206e+01  1.0004395795092643e+02  1.0012471751869627e+02  9.9979794773213612e+01  9.9966715441594317e+01  1.0005783617892462e+02  1.0005340153109624e+02  9.9870537248711443e+01  1.0037429286506253e+02  9.9929483352986040e+01  1.0001669567166756e+02  9.9903211748140549e+01  1.0023970071187637e+02  1.0027615355317792e+02  9.9643605121714785e+01  1.0015637296174572e+02  9.9599577075400191e+01  9.9874088308819182e+01  1.0009562102752639e+02  9.9968376068367391e+01  9.9966911766659166e+01  9.9631084053831543e+01  1.0040524346138395e+02  1.0018619559482184e+02  9.9742044404564155e+01  9.9748231204273921e+01  9.9462126192808270e+01  9.9684345578518361e+01  9.9981727685587515e+01  9.9790465634086360e+01  9.9772663360513192e+01  9.9962219053861162e+01  9.9537795450753194e+01  1.0038075742129807e+02  9.9895901038686119e+01  9.9965404996100276e+01  9.9931275179425114e+01  1.0008389763962498e+02  9.9758435374393486e+01  1.0023488850604821e+02  1.0012568007236914e+02  1.0019330482874236e+02  9.9932021333672409e+01  9.9935141488600280e+01  1.0017170011393041e+02  1.0016537740519942e+02  9.9908385570024109e+01  1.0007181400011157e+02  9.9900108659268241e+01  9.9980110736812108e+01  1.0010340342365474e+02  1.0012993311048393e+02  1.0002327883097998e+02  1.0020498123762118e+02  9.9405119725405271e+01  9.9973247364395576e+01  9.9953245911767482e+01  1.0006534086129420e+02  9.9750359180546013e+01  9.9973026606308821e+01  9.9979134943823041e+01  9.9835607845158407e+01  9.9940848433129716e+01  9.9823003537078947e+01  9.9527840207159130e+01  9.9940174590966649e+01  9.9747482614503298e+01  9.9967978000755892e+01  9.9881429058633344e+01  9.9580083628052961e+01  9.9984503028547437e+01  9.9922427514561349e+01  9.9943436504225261e+01  9.9967856944610190e+01  9.9862603206169950e+01  9.9938618373322669e+01  1.0000999851437635e+02  9.9995668368857466e+01  9.9963750385231137e+01  1.0024472897593459e+02  1.0014094758940438e+02  9.9707045273288429e+01  9.9965915298269692e+01  9.9855491532633295e+01  1.0021456753972706e+02  9.9893562888978707e+01  1.0012106328500948e+02  9.9711365304059100e+01  1.0021044811313381e+02  1.0066062248526515e+02  9.9472287787664456e+01  1.0009761608923350e+02  9.9499660770138561e+01  1.0006012057043934e+02  9.9925926546263071e+01  9.9999248244987768e+01  9.9861768719919056e+01  9.9959348274944219e+01  9.9958849895843443e+01  9.9863955598815011e+01  1.0027996677825563e+02  1.0008374027193098e+02  1.0004961522095613e+02  1.0059523626798997e+02  9.9875055288317967e+01  9.9932139922651544e+01  9.9746905779951646e+01  9.9971528054321737e+01  9.9889339461270367e+01  9.9870390716211276e+01  1.0019170796959907e+02  9.9980572834356821e+01  1.0005219654864054e+02  1.0028873279537493e+02  9.9953147643044232e+01  1.0051041197117586e+02  9.9902756668396748e+01  1.0008860964855862e+02  1.0030738728498314e+02  1.0008627031487649e+02  9.9909807815427129e+01  1.0001720411169688e+02  9.9861497560422620e+01  1.0000880532148580e+02  9.9953388611332286e+01  9.9916388716013884e+01  9.9772181026946285e+01  9.9966408700792755e+01  9.9757530968272604e+01  9.9928534876827669e+01  1.0014173102598812e+02  1.0015222830243820e+02  1.0012324526518560e+02  9.9899399750598704e+01  1.0003162321859148e+02  1.0004179595202260e+02  1.0004857914437329e+02  9.9544074196763020e+01  1.0018661540544670e+02  1.0007080843099524e+02  9.9883614484193004e+01  1.0002712511872797e+02  1.0028627045018446e+02  9.9590661110181941e+01  1.0022214783513905e+02  9.9941819112897093e+01  9.9984386109633121e+01  1.0003349778894481e+02  9.9968269404137089e+01  1.0042595902926081e+02  9.9817282062391698e+01  1.0009493587458439e+02  9.9928439647290972e+01  9.9889130780630367e+01  1.0010979744745670e+02  1.0033677282273727e+02  9.9999869397321675e+01  9.9832650069376072e+01  1.0027881206438252e+02  9.9955600955593468e+01  1.0018760221037704e+02  9.9959043381655164e+01  9.9806787372920766e+01  9.9992195428899265e+01  1.0005496629819098e+02  9.9997501481116061e+01  1.0019826684443436e+02  1.0024752284950334e+02  1.0003220742746839e+02  1.0018562400360264e+02  9.9901306164905279e+01  9.9778408034536866e+01  1.0005962113050894e+02  1.0017840298348811e+02  9.9845080077001853e+01  1.0008898626042142e+02  1.0003338329341859e+02  1.0005157020892246e+02  1.0004865133937011e+02  9.9718402348580256e+01  9.9785971460076240e+01  1.0005750980503120e+02  1.0007334972336923e+02  1.0014270750840771e+02  9.9956524326999997e+01  9.9938030650347201e+01  9.9969981848642817e+01  1.0002695682405695e+02  1.0017847960668014e+02  1.0007255221569835e+02  9.9968289617225551e+01  1.0001015270937687e+02  1.0003257108197923e+02  9.9911782238172435e+01  9.9970116731447661e+01  1.0009107875500364e+02  9.9896539676200959e+01  9.9933296654856846e+01  1.0034028698254951e+02  1.0006798172215019e+02  9.9831525076776813e+01  9.9779307604657816e+01  1.0018430447087141e+02  9.9972377980944174e+01  9.9983282403859491e+01  9.9984686510141344e+01  1.0006171887464571e+02  1.0021127158451323e+02  1.0003238923743744e+02  9.9901911306807435e+01  1.0023405645883820e+02  9.9912032948669435e+01  1.0001270200346221e+02  1.0009152411199887e+02  1.0003694374872006e+02  9.9993722362987143e+01  9.9850613891983912e+01  1.0005152995778215e+02  1.0005400662243854e+02  9.9851497416016826e+01  9.9918096299656256e+01  9.9987635619410980e+01  9.9961212769536303e+01  1.0043398587894659e+02  9.9893407071973087e+01  9.9953300475006643e+01  9.9767168944969384e+01  9.9903173206151621e+01  1.0019743733760630e+02  9.9824779756503034e+01  9.9881157488752891e+01  1.0002126338801946e+02  9.9984689436019224e+01  9.9879314456321566e+01  9.9943343437541600e+01  9.9915034014782520e+01  1.0010858368625718e+02  9.9838823736173197e+01  9.9968477646080487e+01  1.0048239024133794e+02  1.0024576848393625e+02  1.0004551670783827e+02  9.9872306474798251e+01  9.9846055944152425e+01  9.9953656940902434e+01  1.0004346837135432e+02  1.0006088973687132e+02  9.9906222678448927e+01  9.9913112533442899e+01  9.9992773149020621e+01  9.9669777222123571e+01  9.9926344987618933e+01  9.9995898384752479e+01  9.9959263673663173e+01  1.0017969686810630e+02  1.0003381790601470e+02  1.0013407535147576e+02  9.9944733726958560e+01  1.0000734101381877e+02  9.9844926706469565e+01  9.9868990343007937e+01  1.0008493488957940e+02  9.9920163021326047e+01  9.9833369653579126e+01  9.9740815145886302e+01  9.9967842283669796e+01  9.9671195965107003e+01  9.9767088223060952e+01  9.9261349958663274e+01  9.9520033505650687e+01  9.9821702166765235e+01  1.0002650919315739e+02  1.0032258450874095e+02  1.0018929822833729e+02  9.9419945610773084e+01  9.9941294324797425e+01  9.9704012581796917e+01  9.9810401853522492e+01  9.9902496649247325e+01  1.0011402756647037e+02  9.9994962452043836e+01  9.9827880922398080e+01  9.9606816697356692e+01  1.0000715616647480e+02  1.0003483997101635e+02  9.9924699550050164e+01  9.9253942830938357e+01  9.9620750536032588e+01  9.9960198546946529e+01  1.0014194834693042e+02  9.9928292894389458e+01  1.0046853417163878e+02  9.9915046908542863e+01  9.9948305981738670e+01  9.9834478243463678e+01  9.9994106315404721e+01  1.0005963746785746e+02  9.9901309544653259e+01  1.0013930361746637e+02  9.9596986200148478e+01  9.9915182011805726e+01  1.0007761252174782e+02  9.9937092993688850e+01  1.0003657135360052e+02  1.0001887274140336e+02  9.9915611158543769e+01  9.9865968079119355e+01  9.9790588370920474e+01  9.9668553803442933e+01  9.9451625663983791e+01  9.9511565911820014e+01  1.0008509983993548e+02  1.0011645124273058e+02  1.0015431564788122e+02  1.0043168175027796e+02  1.0008939096071209e+02  9.9959103152416318e+01  9.9760025769999402e+01  9.9291168944062022e+01  9.9748245565356385e+01  9.9444630327362972e+01  9.9340952741100821e+01  1.0003420432949072e+02  9.9773973781341908e+01  1.0040710611096505e+02  9.9614588804226841e+01  9.9279949972385225e+01  1.0007419824190191e+02  9.9336147463988283e+01  9.9989261145431286e+01  9.9799112744273359e+01  1.0019112531804262e+02  9.9786791836621518e+01  9.9561428444638096e+01  1.0019456584588124e+02  9.9325948119184275e+01  1.0001131170515370e+02  1.0025703835672994e+02  9.9819733435130757e+01  9.9836309450924688e+01  1.0004429999839290e+02  9.9729486943551933e+01  9.9874010782366796e+01  9.9921925006317579e+01  1.0016371863700999e+02  9.9488174630361556e+01  9.9966373282644113e+01  9.9872387520510287e+01  1.0010954446246500e+02  1.0006490805272425e+02  9.9570032713223085e+01  9.9833491161124527e+01  1.0001378328037076e+02  1.0010489144477920e+02  1.0015822455648933e+02  9.9658140755162137e+01  9.9827781633529725e+01  9.9669913558670970e+01  1.0013435131130919e+02  9.9586147247716312e+01  9.9759418865477400e+01  9.9958586656116708e+01  1.0005690233666890e+02  9.9579192920512043e+01  9.9298053621574482e+01  1.0009867523161832e+02  9.9899451736727997e+01  1.0000707237486536e+02  9.9846584252003709e+01  1.0014945031781976e+02  9.9710650720658620e+01  9.9870077663398433e+01  9.9710998947953129e+01  9.9963096719791110e+01  1.0048954676916817e+02  1.0003601403779427e+02  9.9839563084892632e+01  9.9794600420122705e+01  1.0010704091192819e+02  1.0017650435946349e+02  1.0000330720432889e+02  1.0009654687247625e+02  1.0001664933841563e+02  9.9746747802663961e+01  9.9838273880954716e+01  9.9921769268275241e+01  9.9972018812022000e+01  1.0004928601084140e+02  9.9827862478397847e+01  9.9900471428321907e+01  9.9781064334607620e+01  9.9787690582904460e+01  9.9979249892313618e+01  1.0000670436827291e+02  1.0018774493573886e+02  1.0019530256694490e+02  1.0009424316913157e+02  1.0018472855486064e+02  1.0012079615068090e+02  1.0002679312677627e+02  1.0008560640896839e+02  9.9833978043014994e+01  9.9912490141958841e+01  1.0012669942403086e+02  1.0018280848466917e+02  1.0006626872613290e+02  9.9808920740789532e+01  1.0016345977330285e+02  1.0012013900705146e+02  9.9927934293445588e+01  1.0009209904692801e+02  1.0005555561806010e+02  9.9744857518672006e+01  9.9952185398394008e+01  1.0006015008423847e+02  9.9860134406428230e+01  9.9838384526877604e+01  9.9984654214003243e+01  1.0001647476862480e+02  9.9386201927604148e+01  1.0007426789453780e+02  1.0022697750837824e+02  1.0002715099718736e+02  9.9763783188949077e+01  9.9983635176731440e+01  9.9749152413494400e+01  1.0001129193080317e+02  1.0018233578028259e+02  1.0011193558242341e+02  9.9878582009741081e+01  9.9874027063272052e+01  9.9787841351438317e+01  9.9849687651192298e+01  1.0048418051488835e+02  1.0005684064640982e+02  9.9867935136584350e+01  9.9793395595765659e+01  9.9646449804079822e+01  9.9675877002689134e+01  9.9606157299189263e+01  1.0009580433198640e+02  9.9850181015044271e+01  1.0025824262602194e+02  9.9824933745359928e+01  1.0024050176187234e+02  9.9718847952042324e+01  9.9792725014175005e+01  1.0011219040154749e+02  1.0004894943836975e+02  1.0002020627440022e+02  9.9977184848485138e+01  9.9907538227864066e+01  1.0001014278793826e+02  1.0039063133060705e+02  9.9985482151589579e+01  9.9936350532805292e+01  1.0026369034960808e+02  1.0005988491537818e+02  9.9882597892394955e+01  9.9956362208407540e+01  9.9636026452398781e+01  9.9598878570016183e+01  1.0023583454296222e+02  1.0015402152189525e+02  9.9958925845762323e+01  9.9838203052684051e+01  9.9490636371801827e+01  9.9390398805657242e+01  1.0017911797959793e+02  9.9574142577166015e+01  9.9917936013874439e+01  9.9671507032534009e+01  1.0000091966744027e+02  1.0008281548709266e+02  9.9720104745335391e+01  9.9868172411080209e+01  9.9764608719897481e+01  9.9610886538736551e+01  9.9119603652866033e+01  9.9869528079504107e+01  1.0007258773512655e+02  9.9904471023843541e+01  1.0002396273973255e+02  9.9758463043140040e+01  1.0005887621695410e+02  9.9753315107655027e+01  9.9942895214369770e+01  1.0020120772512149e+02  9.9975889525423042e+01  1.0000183567318626e+02  1.0007653771231676e+02  9.9783229819166124e+01  9.9899822882281725e+01  9.9214434887304748e+01  1.0009680076742289e+02  9.9818638079349228e+01  9.9904734258888425e+01  9.9631137227745100e+01  9.9843862664820193e+01  9.9276876551225641e+01  9.9874697840537735e+01  1.0006191795772531e+02  9.9844726447860793e+01  9.9813257212692562e+01  1.0019052861017855e+02  1.0013968919605070e+02  9.9665481024458657e+01  9.9981252806761248e+01  9.9894403114753885e+01  9.9189684358399134e+01  9.9581568840195729e+01  1.0002717416903825e+02  1.0001199829572343e+02  9.9693292171977163e+01  1.0007065571311414e+02  9.9702568315766385e+01  9.9928769515020676e+01  1.0010868347443174e+02  9.9788085685653186e+01  9.9913779011494796e+01  1.0013697424472342e+02  9.9736357709661718e+01  9.9980438230092389e+01  9.9991180805062527e+01  9.9814436986504077e+01  9.9866094607195151e+01  9.9760443228069448e+01  9.9864736250698328e+01  9.9796714901856021e+01  9.9864177188032471e+01  9.9956189724918488e+01  9.9677270267822195e+01  1.0011468409009055e+02  1.0018923160614594e+02  9.9771383728558590e+01  9.9932312819406945e+01  9.9939459177692399e+01  9.8601997703144647e+01  9.9828330917033767e+01  9.9328765730344784e+01  9.9063187219175660e+01  1.0011131089565457e+02  9.9598532547882499e+01  9.9619508402602193e+01  1.0008382564482545e+02  9.9941313710698395e+01  9.9550655229368900e+01  9.9915497128083075e+01  9.9996520528753038e+01  1.0021282609780077e+02  1.0001775778875786e+02  1.0009071467879166e+02  9.9624920492763948e+01  9.9871191772352958e+01  9.9965389460578891e+01  9.9982565626878781e+01  1.0000614164237466e+02  9.9840351556933641e+01  9.9859711175165373e+01  1.0009584548028958e+02  1.0004556704304292e+02  9.9963517979205648e+01  1.0001273383528560e+02  1.0021302806816428e+02  1.0004051079155944e+02  9.9878836003477929e+01  9.9969423259834485e+01  9.9981914362387229e+01  9.9888613244306342e+01  9.9916518421172711e+01  9.9758469004576796e+01  9.9910260728617843e+01  9.9949287529861024e+01  1.0025028940257154e+02  9.9742132434492049e+01  1.0004211536562936e+02  9.9863069383572522e+01  9.9978342390793429e+01  9.9182158377079489e+01  9.9908674284348166e+01  1.0011880382088776e+02  9.9869157325167308e+01  9.9747982850388723e+01  1.0001719679600519e+02  9.9987039369415399e+01  9.9744083034611194e+01  1.0012484814178788e+02  9.9935844180671467e+01  9.9915180799899417e+01  9.9987300333374549e+01  9.9630818193434536e+01  9.9917696138084011e+01  9.9939432540772032e+01  1.0013972165390548e+02  9.9911326100777870e+01  9.9949428315073177e+01  1.0005123534325499e+02  9.9534090414921550e+01  1.0016601986490612e+02  9.9691153505215880e+01  9.9808729457083061e+01  1.0032226149748719e+02  1.0005156962795121e+02  9.9669126730699062e+01  9.9772304872313839e+01  9.9884867365840151e+01  9.9726159283842108e+01  1.0001807749533570e+02  9.9920989603046138e+01  9.9911971387927309e+01  1.0000659489618171e+02  9.9911815685262155e+01  9.9804420019266828e+01  9.9962842803130115e+01  9.9946743945403625e+01  1.0012504652956987e+02  9.9998368512081612e+01  1.0011055807302638e+02  9.9627839903629166e+01  9.9959639661151414e+01  1.0003225189019706e+02  1.0012096958896235e+02  1.0000082799196200e+02  9.9987877218952249e+01  9.9864442657822707e+01  1.0000897009015097e+02  1.0006568328003775e+02  9.9894294954126991e+01  9.9756036425177896e+01  9.9953117353788144e+01  9.9753965756256349e+01  9.9753960018089018e+01  9.9774869453341495e+01  9.9927123958618594e+01  9.9988180012076398e+01  9.9601531312696636e+01  9.9877677693520823e+01  1.0026710228121868e+02  9.9623029223716586e+01  9.9523416126005969e+01  9.9428519201980805e+01  9.9840148246271696e+01  1.0006977933996149e+02  9.9553533031799631e+01  9.9993480788112620e+01  9.9175680007601869e+01  1.0013702466501171e+02  1.0000602967626399e+02  1.0014601785158487e+02  9.9975547641957803e+01  9.9420171974266196e+01  9.9791819664084358e+01  1.0008340844474336e+02  9.9675057299438919e+01  9.9970390213844581e+01  9.9929774663233232e+01  9.9589452541172179e+01  1.0002128297705127e+02  1.0002848557992921e+02  9.9859084987404557e+01  9.9896991121639417e+01  9.9998742066241391e+01  1.0009555923923917e+02  1.0000887345701699e+02  1.0014888480072864e+02  9.9894583626335532e+01  1.0007996885815398e+02  9.9938881241945296e+01  1.0009677349717040e+02  1.0003826025324010e+02  9.9818272544406014e+01  9.9914585083104711e+01  1.0021797878514869e+02  1.0024147505980501e+02  9.9992505570307571e+01  9.9964179975243326e+01  1.0009734649091544e+02  9.9964633236820845e+01  9.9820728778552933e+01  9.9845975471959903e+01  9.9997750352376215e+01  1.0009892969305439e+02  9.9947223112882114e+01  9.9749419722387316e+01  9.9993700223329057e+01  1.0008871000423234e+02  9.9880066308156373e+01  1.0058452243779738e+02  1.0017539988977435e+02  9.9920668798410688e+01  9.9903822318626268e+01  9.9333282261203678e+01  9.9901873647193042e+01  1.0001543570428235e+02  9.9207742765673160e+01  9.9317481537855386e+01  9.9348334522182682e+01  9.9952336730041864e+01  9.9776074811633848e+01  9.9971056611001273e+01  1.0002298847655337e+02  9.9880219203138154e+01  9.9922405583454292e+01  9.9787475493028367e+01  9.9933428968537072e+01  9.9832560623745110e+01  1.0001313479582807e+02  9.9952741352306745e+01  1.0008713654057982e+02  9.9862160928617485e+01  9.9955595497591730e+01  9.9905273378282814e+01  1.0006806333336409e+02  9.9978111471996215e+01  1.0001293508874554e+02  9.9661504971888178e+01  1.0022388110927024e+02  9.9874110800459505e+01  9.9768418262090492e+01  9.9665568486590232e+01  9.9819558181376905e+01  9.9960996805814176e+01  9.9880278513559801e+01  9.8996027242163976e+01  9.9816217100543227e+01  9.9937403248485666e+01  9.9997149524551233e+01  1.0013316012280426e+02  9.9879673879469735e+01  9.9847385556598468e+01  9.9735234424510111e+01  1.0025014847754736e+02  9.9937726513703893e+01  9.9791471768170894e+01  9.9939565205080612e+01  9.9874353941748311e+01  9.9775653010061347e+01  9.9995206497200925e+01  9.9897106261891324e+01  9.9784812234593190e+01  1.0012243819766366e+02  9.9561164344187134e+01  9.9646725825635670e+01  1.0002580846713737e+02  9.9964866380452975e+01  9.9548293657822640e+01  9.9782289494289415e+01  1.0010076520887903e+02  9.9914152531684394e+01  9.9468773392246874e+01  9.9974284407180647e+01  9.9693626914793455e+01  9.9748081760641099e+01  9.9887029323175227e+01  9.9600542803910045e+01  9.9736269731605404e+01  9.9662631403564447e+01  1.0011815406574783e+02  9.9778595934596837e+01  9.9837896302087756e+01  9.9998309912708393e+01  9.9825165776653222e+01  9.9990469317597771e+01  9.9911990388799438e+01  1.0005087115179242e+02  1.0013736877054970e+02  9.9997714087562187e+01  9.9828620936047514e+01  9.9980274559206535e+01  1.0003434265077601e+02  9.9857417633342266e+01  9.9827571238304301e