<?xml version="1.0"?>
<VTKFile type="UnstructuredGrid"  version="0.1"  >
<UnstructuredGrid>
<Piece  NumberOfPoints="5067" NumberOfCells="21972">
<Points>
<DataArray  type="Float64"  NumberOfComponents="3"  format="ascii">-50.199326 -20.506615 13.982361  -48.274421 -20.771295 14.32457175  -48.571912 -20.0502745 14.38335  -48.89138325 -19.850365 13.6308805  -47.58344049999999 -19.194115 13.2794  -46.96647824999999 -20.115045 13.97309125  -47.26396925 -19.3940245 14.0318695  -46.944498 -19.593934 14.784339  -46.647007 -20.3149545 14.72556075  -46.349516 -21.035975 14.6667825  -48.59389225 -20.5713855 13.57210225  -47.2859495 -19.9151355 13.22062175  -46.9884585 -20.636156 13.1618435  -46.66898725 -20.8360655 13.914313  -49.87985475 -20.7065245 14.7348305  -49.5603835 -20.906434 15.4873  -47.95494975 -20.9712045 15.07704125  -48.25244075 -20.250184 15.1358195  -48.921441 -21.306253 16.992239  -47.6354785 -21.171114 15.82951075  -47.9329695 -20.4500935 15.888289  -49.24091225 -21.1063435 16.2397695  -44.967555 -17.881615 12.576439  -44.670064 -18.6026355 12.51766075  -45.6585355 -19.458795 13.62161075  -45.97800675 -19.2588855 12.86914125  -45.36104450000001 -20.1798155 13.5628325  -45.68051575 -19.979906 12.810363  -44.372573 -19.323656 12.4588825  -45.95602649999999 -18.7377745 13.680389  -46.27549775 -18.537865 12.9279195  -43.777591 -20.765697 12.341326  -44.075082 -20.0446765 12.40010425  -45.0635535 -20.900836 13.50405425  -45.38302475 -20.7009265 12.75158475  -48.89116575 -20.27846175 12.91154275  -47.583223 -19.62221175 12.56006225  -47.285732 -20.34323225 12.501284  -47.5830055 -20.0503085 11.8407245  -44.966685 -19.594002 9.699088  -44.6694115 -19.88692575 10.3596475  -44.9669025 -19.16590525 10.41842575  -46.27484525 -19.82215525 10.76990625  -45.97757175 -20.115079 11.43046575  -46.27506275 -19.3940585 11.489244  -44.96711999999999 -18.7378085 11.1377635  -44.669629 -19.458829 11.07898525  -44.372138 -20.1798495 11.020207  -44.9673375 -18.30971175 11.85710125  -46.27528024999999 -18.96596175 12.20858175  -45.97778925 -19.68698225 12.1498035  -44.6698465 -19.03073225 11.798323  -44.3723555 -19.75175275 11.73954475  -45.68029825 -20.40800275 12.09102525  -44.0748645 -20.47277325 11.6807665  -52.226008 -18.208582 8.768789999999999  -51.211489 -18.35377025 9.550091999999999  -51.44407825 -17.66417 9.587869749999999  -51.44407825 -18.04174375 8.93389275  -50.6621485 -17.8749055 9.098995500000001  -50.42955925 -18.186932 9.71519475  -50.6621485 -17.49733175 9.7529725  -50.6621485 -17.119758 10.4069495  -50.42955925 -17.80935825 10.36917175  -50.19697 -18.4989585 10.331394  -51.99341875 -18.5206085 9.38498925  -51.7608295 -18.832635 10.0011885  -50.97889975 -18.66579675 10.16629125  -51.211489 -17.9761965 10.204069  -52.226008 -17.83100825 9.422767  -52.226008 -17.4534345 10.076744  -51.44407825 -17.28659625 10.24184675  -51.99341875 -18.14303475 10.03896625  -52.226008 -16.698287 11.384698  -51.44407825 -16.9090225 10.89582375  -51.99341875 -17.38788725 11.34692025  -52.226008 -17.07586075 10.730721  -51.211489 -17.59862275 10.858046  -51.99341875 -17.765461 10.69294325  -51.7608295 -18.0774875 11.3091425  -51.295651 -19.456688 11.233587  -50.7463105 -18.97782325 10.7824905  -50.97889975 -18.288223 10.82026825  -51.52824025 -19.1446615 10.61738775  -51.52824025 -18.76708775 11.27136475  -51.7608295 -18.45506125 10.6551655  -49.098289 -17.541229 9.429201000000001  -49.6476295 -18.02009375 9.880297500000001  -49.88021875 -17.3304935 9.918075250000001  -49.88021875 -17.70806725 9.26409825  -48.899791 -23.63693 13.642066  -47.61825575 -23.33099875 12.48870225  -47.26214299999999 -23.68357075 13.1788635  -48.5214565 -24.4505235 13.4659525  -48.14312200000001 -25.264117 13.289839  -47.23992125 -24.14459225 12.31258875  -46.8838085 -24.49716425 13.00275  -45.624495 -23.7302115 12.715661  -45.98060775 -23.3776395 12.02549975  -46.3367205 -23.0250675 11.3353385  -47.386453 -26.891304 12.937612  -46.86158675 -24.95818575 12.13647525  -46.48325225000001 -25.77177925 11.96036175  -46.1271395 -26.12435125 12.650523  -44.867826 -25.3573985 12.363434  -45.60227325 -24.191233 11.84938625  -45.22393875 -25.0048265 11.67327275  -45.5800515 -24.6522545 10.9831115  -45.958386 -23.838661 11.159225  -46.505474 -25.31075775 12.8266365  -45.2461605 -24.543805 12.5395475  -47.7647875 -26.0777105 13.1137255  -43.77365 -22.413205 9.028611  -45.05518525 -22.71913625 10.18197475  -43.41753725 -22.765777 9.718772250000001  -44.67685075 -23.53272975 10.00586125  -44.6990725 -23.07170825 10.872136  -44.32073800000001 -23.88530175 10.6960225  -43.0614245 -23.118349 10.4089335  -42.349199 -23.823493 11.789256  -44.34295975 -23.42428025 11.56229725  -42.70531175 -23.470921 11.09909475  -43.96462525 -24.23787375 11.38618375  -43.6085125 -24.59044575 12.076345  -43.986847 -23.77685225 12.2524585  -45.989047 -16.866138 10.027009  -45.733674 -17.12000725 10.6643665  -46.5109845 -17.28878 10.5149145  -45.4780835 -17.80197325 10.58238625  -45.2227105 -18.0558425 11.21974375  -46.000021 -18.22461525 11.07029175  -47.032922 -17.711422 11.00282  -46.2556115 -17.54264925 11.152272  -45.478301 -17.3738765 11.301724  -46.255394 -17.970746 10.43293425  -45.7334565 -17.548104 9.945028749999999  -45.222493 -18.48393925 10.500406  -45.477866 -18.23007 9.8630485  -46.510767 -17.71687675 9.79557675  -47.0327045 -18.13951875 10.28348225  -47.032487 -18.5676155 9.564144500000001  -46.2551765 -18.39884275 9.713596500000001  -46.7663575 -17.03491075 9.877556999999999  -47.288295 -17.45755275 10.3654625  -47.2880775 -17.8856495 9.64612475  -47.543668 -17.2036835 9.728104999999999  -48.3209785 -17.37245625 9.578652999999999  -48.065388 -18.05442225 9.496672750000002  -48.0656055 -17.6263255 10.2160105  -45.22227549999999 -18.912036 9.781068250000001  -45.9998035 -18.652712 10.350954  -45.999586 -19.08080875 9.63161625  -45.222928 -17.62774575 11.9390815  -46.00023849999999 -17.7965185 11.7896295  -50.197494 -22.366079 10.768942  -49.87306825 -22.68379175 11.487223  -48.59251825 -21.9659835 11.162038  -50.197952 -21.901213 11.57229675  -50.19841 -21.436347 12.3756515  -49.87352625 -22.21892575 12.29057775  -48.59297625 -21.5011175 11.96539275  -46.9875425 -21.565888 11.555134  -48.2680925 -22.28369625 11.880319  -49.5486425 -23.0015045 12.205504  -48.59343425 -21.0362515 12.7687475  -49.87444225 -21.28919375 13.89728725  -48.2685505 -21.81883025 12.68367375  -46.9880005 -21.101022 12.35848875  -48.2690085 -21.35396425 13.4870285  -49.5495585 -22.0717725 13.8122135  -50.198868 -20.971481 13.17900625  -49.87398425 -21.75405975 13.0939325  -47.94366675000001 -22.601409 12.5986  -47.619241 -22.91912175 13.316881  -47.94412475 -22.136543 13.40195475  -46.66357475 -21.41873475 13.07676975  -46.338691 -22.2013135 12.991696  -46.66311675 -21.88360075 12.273415  -49.22467475000001 -22.85435125 13.72713975  -49.54910049999999 -22.5366385 13.00885875  -49.22421675 -23.31921725 12.923785  -45.38256675 -21.1657925 11.94823  -45.058141 -21.48350525 12.666511  -48.921123 -25.370475 9.953027000000001  -48.5378025 -26.15715175 9.6608295  -47.277956 -25.665724 8.493979  -47.28411800000001 -25.354711 9.46562525  -45.647113 -25.338947 8.9782235  -46.8946355 -26.45240075 8.201781499999999  -46.9007975 -26.14138775 9.17342775  -45.640951 -25.64996 8.006577249999999  -45.634789 -25.960973 7.034931  -48.154482 -26.9438285 9.368632  -48.91496100000001 -25.681488 8.98138075  -47.271794 -25.976737 7.52233275  -48.908799 -25.992501 8.0097345  -48.5316405 -26.46816475 8.689183249999999  -47.387841 -28.517182 8.784236999999999  -46.1341565 -27.71474125 8.589032749999999  -46.511315 -27.2390775 7.909584  -46.517477 -26.9280645 8.88123025  -45.2637925 -26.12562375 8.686026  -45.2576305 -26.43663675 7.71437975  -44.880472 -26.9123005 8.3938285  -47.77116150000001 -27.73050525 9.0764345  -47.7649995 -28.04151825 8.104788249999999  -48.14832 -27.2548415 8.396985749999999  -48.142158 -27.5658545 7.4253395  -42.373103 -25.307419 8.00342  -43.6267875 -26.10985975 8.19862425  -44.003946 -25.634196 7.5191755  -44.010108 -25.323183 8.49082175  -45.989047 -18.19909 7.334892  -46.5184765 -18.99427925 6.99578375  -46.772279 -18.3362925 7.182125  -46.772279 -18.5628875 6.466115  -47.555511 -18.926685 5.597338  -47.3017085 -19.35807675 6.12700675  -47.555511 -18.70009 6.313348  -47.555511 -18.473495 7.029358  -47.3017085 -19.13148175 6.84301675  -47.047906 -19.7894685 6.6566755  -45.7352445 -18.85707675 7.14855075  -45.989047 -18.425685 6.618882  -45.989047 -18.65228 5.902872  -46.5184765 -19.22087425 6.27977375  -45.7352445 -19.08367175 6.43254075  -45.481442 -19.5150635 6.9622095  -46.264674 -19.652266 6.8094425  -49.121975 -18.7479 6.723824  -48.0849405 -19.26868425 6.69024975  -48.33874299999999 -18.6106975 6.876590999999999  -48.33874299999999 -18.8372925 6.160581  -44.973837 -20.831037 6.589527  -46.0108715 -20.31025275 6.62310125  -45.2276395 -20.17305025 6.77586825  -45.481442 -19.7416585 6.2461995  -50.19865 -23.719441 7.31325  -49.960104 -22.67102675 6.481738  -48.89244675 -22.99734 7.13231925  -49.92948125 -22.47655575 7.1658935  -49.6603125 -21.2336705 7.018537  -48.65390075000001 -21.94892575 6.30080725  -49.69093525 -21.4281415 6.3343815  -48.623278 -21.75445475 6.98496275  -47.5862435 -22.275239 6.9513885  -49.721558 -21.6226125 5.650226  -48.11556325 -19.46315525 6.00609425  -48.35410925 -20.5115695 6.83760625  -49.4217665 -20.18525625 6.187025  -49.39114375 -19.99078525 6.871180499999999  -47.24193624999999 -23.173803 14.106308  -46.88483825 -23.938252 13.9682905  -44.8698855 -24.239574 14.294515  -45.2269835 -23.475125 14.4325325  -45.60428825 -23.22044375 13.6431055  -45.96138625 -22.45599475 13.781123  -45.5840815 -22.710676 14.57055  -45.981593 -22.9657625 12.8536785  -45.24719025 -23.98489275 13.505088  -48.52248625 -23.89161125 14.431493  -46.50753349999999 -24.19293325 14.7577175  -46.8646315 -23.42848425 14.895735  -48.1451815 -24.1462925 15.22092  -47.390572 -24.655655 16.799774  -47.76
[...]
<PointData  Scalars="p_O2"> 
<DataArray  type="Float64"  Name="p_O2"  format="ascii">8.4422614704510508e+01  5.2364163188882969e+01  5.1079387168730889e+01  5.0694055719846226e+01  3.9752885062356761e+01  4.2018485633141935e+01  4.0527963282130003e+01  4.0398750217775955e+01  4.1702759098819918e+01  4.2055256786632867e+01  5.1317752391332213e+01  4.0421150811529841e+01  4.0365406587695738e+01  4.1770330115358284e+01  8.6489426479993497e+01  8.6980647516038914e+01  5.4448195080998481e+01  5.3678016184644243e+01  8.8673011467729367e+01  5.6376184152359500e+01  5.5384318970355217e+01  8.8147490655799402e+01  7.5227974851997146e+01  7.9176668207989493e+01  4.5132958650892085e+01  4.3486727034466853e+01  4.7511455479230236e+01  4.6401889837272414e+01  8.0787727464311999e+01  4.3455388657305079e+01  4.2933252327111951e+01  8.3758913389152909e+01  8.3451879795359929e+01  4.8645819132926448e+01  4.6866617764036071e+01  4.9303412438909021e+01  4.0556844839133696e+01  4.0545369685707868e+01  3.9761704474199455e+01  7.5209773129334636e+01  7.9541053777573438e+01  7.7959219755474138e+01  4.1368237728512469e+01  4.3354382525883807e+01  4.2829472695905935e+01  7.5212304456865212e+01  7.9117360538685404e+01  8.0911599414372375e+01  7.7856961692298825e+01  4.1334475595522044e+01  4.3472679902683467e+01  7.9104377452152860e+01  8.3892810205236245e+01  4.4436563825105907e+01  8.4042005663214866e+01  4.0000000000000000e+01  4.6127209154783536e+01  4.0000000000000000e+01  4.0000000000000000e+01  4.0000000000000000e+01  4.1148062530534304e+01  4.0000000000000000e+01  4.0000000000000000e+01  4.1275240231296166e+01  4.1758827488806034e+01  6.0488060699711617e+01  7.1060166389656445e+01  5.0213179009198527e+01  4.5269876996521745e+01  4.0000000000000000e+01  4.0000000000000000e+01  4.0000000000000000e+01  6.3416314302933444e+01  4.0000000000000000e+01  4.0000000000000000e+01  6.4751587290675715e+01  4.0000000000000000e+01  4.6240035650347899e+01  6.0819685609963031e+01  7.2443065289908333e+01  7.8357727586461763e+01  5.3410087606830977e+01  4.9251465546980640e+01  7.5601234748988361e+01  7.6337618532792845e+01  7.4789608964920291e+01  4.0000000000000000e+01  4.0402696964531124e+01  4.0000000000000000e+01  4.0000000000000000e+01  8.8529805070432104e+01  5.6682331396633742e+01  5.8779664184557511e+01  8.9217386728131146e+01  8.9561068025338571e+01  5.8577544309716956e+01  6.1091427441092854e+01  4.4863718673399269e+01  4.3832698229604595e+01  4.1938069636741446e+01  9.0724713092203203e+01  6.0162941816289795e+01  6.2561443072498527e+01  6.5171345649532114e+01  4.8657116610244024e+01  4.6541977650231665e+01  4.7314280158496331e+01  4.5110679840698623e+01  4.4029620384037308e+01  6.2490058496815429e+01  4.7235967068774606e+01  9.0155745977742058e+01  8.3810259925729326e+01  4.8745705968517271e+01  8.5799828266648248e+01  5.1283869221187686e+01  5.1302890649471308e+01  5.4561522028318556e+01  8.6059848076091612e+01  8.7409141400250249e+01  5.2719130162468794e+01  8.7700633595772757e+01  5.5150568417915785e+01  5.8032990406729624e+01  5.4997190814464147e+01  4.0000000000000000e+01  6.4035194964156133e+01  3.9826283359307567e+01  7.0128055230161067e+01  7.5301731833840861e+01  4.9499269080982771e+01  3.9772738970571510e+01  4.8858020585100924e+01  7.2338277669000817e+01  4.7675398149344097e+01  6.4735593248978830e+01  7.5070989440202979e+01  7.2127781129729769e+01  4.1385942590544559e+01  4.0483455401306387e+01  3.9551218676252333e+01  4.8648573029302206e+01  4.0000000000000000e+01  3.9831435833586802e+01  4.0232402362653119e+01  4.0000000000000000e+01  4.0000000000000000e+01  3.9872173485587886e+01  3.9951299301362475e+01  7.5550551131570913e+01  4.9165502480447408e+01  4.8670199214612218e+01  7.5664083903481028e+01  4.9393997410409305e+01  8.4479990750435988e+01  8.6475031679330812e+01  5.1017979410470573e+01  8.4773387092277943e+01  8.3334193898208909e+01  8.5606998235083054e+01  5.1101011532458600e+01  4.0384352944190987e+01  5.3605514975071607e+01  8.6959644402867738e+01  5.0857136613601554e+01  8.5975084364677187e+01  5.2977066929326782e+01  4.1322989873453963e+01  5.3929240678286710e+01  8.6533047007779729e+01  8.4829682231221142e+01  8.5607736050554124e+01  5.5144357088750446e+01  5.8225508570172011e+01  5.5057266339887299e+01  4.1803163729054823e+01  4.2280797135329095e+01  4.1921790750413038e+01  8.7946828925984065e+01  8.7373272372568380e+01  8.8056750184539752e+01  4.6565477678346063e+01  4.9663476485032142e+01  8.8531502121788463e+01  8.9162697555032395e+01  5.7821923813303712e+01  5.8723611331508515e+01  4.4768770420945010e+01  6.0420543182232784e+01  6.0925211533505411e+01  4.5757315904229337e+01  4.4815962093734200e+01  8.9367307222707936e+01  8.8840586577101433e+01  5.8508632820923921e+01  8.7608956806413104e+01  8.9222280943585545e+01  9.0789578274231019e+01  6.5115139236386625e+01  6.2422608722515740e+01  6.2147461551871324e+01  4.7170718870663002e+01  4.7250637084782191e+01  4.8720334519095694e+01  9.0189641813691537e+01  9.0301649443788250e+01  8.9480913782852326e+01  8.9890897738848125e+01  8.7376401211507485e+01  5.7946354388403002e+01  5.4781815109722316e+01  5.4939724534805634e+01  4.0000000000000000e+01  4.1314467035711459e+01  4.0000000000000000e+01  4.0000000000000000e+01  4.0000000000000000e+01  4.0126863168975298e+01  4.0000000000000000e+01  4.0000000000000000e+01  4.0213686937324795e+01  3.9534978664521702e+01  6.4689790527735568e+01  4.0000000000000000e+01  4.0000000000000000e+01  3.9393877263313499e+01  6.3587765512496091e+01  7.1998641280118889e+01  4.8518512197657962e+01  4.0000000000000000e+01  3.9847268395822219e+01  4.0000000000000000e+01  4.0000000000000000e+01  7.5014496791848345e+01  4.8452928807445431e+01  7.5424725749041215e+01  7.0393077351460974e+01  8.4477865874092657e+01  6.1833671836310906e+01  5.0643048192219759e+01  6.2004424116746101e+01  4.3654550695722882e+01  4.2011444719794191e+01  4.4535486986607488e+01  4.1787881251704682e+01  3.9962724448591224e+01  4.4765877037588453e+01  3.9803434634870683e+01  4.0159150284139123e+01  4.0439307425574214e+01  4.0704242344915158e+01  5.8590832191547612e+01  5.9506846197187301e+01  4.8503464546126857e+01  4.7252863324486107e+01  4.6667108838682253e+01  4.4196028732545770e+01  4.5128104527300700e+01  4.3996372791557967e+01  4.7168796656122396e+01  8.9193310521077578e+01  6.1566840422340043e+01  6.1045061854070774e+01  8.9437809151673790e+01  9.0725077433567535e+01  9.0118227562077749e+01  6.2545559458142385e+01  6.3322754364264469e+01  5.3261034208453431e+01  5.1197764824363468e+01  8.5734514598185100e+01  8.6092554263920789e+01  5.5833560796009394e+01  5.4466219221248323e+01  5.1267989954379352e+01  5.7006966674090691e+01  8.7689515604822901e+01  6.3165294120285211e+01  9.0917877244229302e+01  9.1209225646904926e+01  9.1321597970425287e+01  6.5377869771950799e+01  9.1050355568446236e+01  9.0200721260593838e+01  6.3928686836172439e+01  9.1211384267211031e+01  9.0915190434024623e+01  6.5392026948729949e+01  9.1114829485107677e+01  9.1425829887133872e+01  9.2750487773521371e+01  9.2106039050702364e+01  6.7193799386908935e+01  9.1062773142283575e+01  9.2068639967629650e+01  5.8596795093919233e+01  8.9230187274336672e+01  4.3887681642424120e+01  5.8406098466998017e+01  8.9523424451470817e+01  6.0953460665006261e+01  4.4834385738424693e+01  6.5148908695614807e+01  6.0112181317349005e+01  4.6581197827421676e+01  4.4079351517841488e+01  4.7336104655162323e+01  4.8676348365376228e+01  6.2427447997601760e+01  4.7235400520671973e+01  9.0145505422682817e+01  8.5825549938211523e+01  5.1251975898855946e+01  5.4573145764167101e+01  8.6057612287145773e+01  8.7411848378531431e+01  8.7698090775143413e+01  5.5154147993551078e+01  5.2674745366277932e+01  5.8034982298440269e+01  5.4965778720374999e+01  5.0139607911973464e+01  8.7117916115536730e+01  5.5875967159852287e+01  5.8918652355180619e+01  8.7650705433722408e+01  8.7441449368359955e+01  8.7470239924333626e+01  8.9113672054854149e+01  8.9123558032686319e+01  5.7097333391586197e+01  8.8415587634959408e+01  8.7857079992954155e+01  5.6968316370143590e+01  8.7973820653230661e+01  8.7835905340428411e+01  5.4472340627968364e+01  5.6237852949426610e+01  4.3887995128798245e+01  8.9135558536476665e+01  8.8995376428295131e+01  7.8455797817612520e+01  5.1925916813190071e+01  5.4858520674868771e+01  7.9590461164752128e+01  7.7946349171721153e+01  5.2533031058229305e+01  5.6423320908623978e+01  4.3528450462728436e+01  4.3116985557911562e+01  4.0566163297008359e+01  8.1230138579848585e+01  5.8563700406925889e+01  8.1588737452730342e+01  8.2998214221794200e+01  5.1521284104669249e+01  5.5029747361306754e+01  4.2389085592438839e+01  4.3340853348268503e+01  7.9421930013730673e+01  8.1014236269865208e+01  8.3203108303086580e+01  5.9295860382721173e+01  8.1637593388435334e+01  6.1874817597848406e+01  8.1307371805101454e+01  8.3633961696508806e+01  8.3766061848670148e+01  4.0302716238143248e+01  4.0683566078712062e+01  5.6384712931903969e+01  5.8239576194612013e+01  4.3611107331703337e+01  4.3978211027204779e+01  4.3899414520622088e+01  4.2204185189268060e+01  4.2080846201199051e+01  8.5981165885712016e+01  5.1159065025561773e+01  8.5759068993372452e+01  4.8544659486302514e+01  8.5637939089848373e+01  8.3970957553983922e+01  5.0394869184185609e+01  4.8730597978774483e+01  8.5534352432022260e+01  8.5666796221742928e+01  8.6043756718926318e+01  5.1308332765479832e+01  8.5795021729003267e+01  5.1108048601087155e+01  5.4376996446523286e+01  4.9692625106258284e+01  5.2676935793908825e+01  8.8482454043093966e+01  8.7605193485135288e+01  8.7994777094000298e+01  6.1056634153697971e+01  4.1790818777384061e+01  4.1753445969778667e+01  4.4171517321476927e+01  4.0298830893173950e+01  4.0609196197518671e+01  4.0577314204960004e+01  4.0424699149197089e+01  4.0490825759129649e+01  4.0771967349850257e+01  4.4009508818315723e+01  5.6924809059019175e+01  4.3900643383651897e+01  5.6253345657164040e+01  5.4228025665933352e+01  5.1485108660018369e+01  4.0000000000000000e+01  4.0000000000000000e+01  4.6228826540592294e+01  4.3592025622023463e+01  4.0644936277187469e+01  4.0894001758801970e+01  4.2480377744818121e+01  4.1843633280731737e+01  4.1203647101784377e+01  4.0000000000000000e+01  6.0597596699858883e+01  4.9108091149287318e+01  5.0374634329142602e+01  7.1192268691178214e+01  7.1062477715537469e+01  5.2612128471623905e+01  7.7955174280446528e+01  7.5667412498483202e+01  6.5102818654017582e+01  5.0430272069705275e+01  7.6305635511038062e+01  7.2666229897929625e+01  5.1990004063439855e+01  7.9552135900384684e+01  7.5714332684915163e+01  5.3583882535524374e+01  5.1659430567324151e+01  7.9454529375354994e+01  4.0000000000000000e+01  4.0435210726041014e+01  4.0307276060888043e+01  8.6456494631286233e+01  8.4723206793505184e+01  5.1068103555026497e+01  4.0286739791022022e+01  5.3622519661849701e+01  5.1074773797082926e+01  8.3288746133458261e+01  8.5560005107737027e+01  8.6972324955827418e+01  8.6048642736935449e+01  5.0831757006293785e+01  5.1313515217972480e+01  4.0371361967681530e+01  5.2959056334437825e+01  5.3905301297722481e+01  4.1287726022469975e+01  8.6533406557176349e+01  8.4812623434616114e+01  8.5534028167969794e+01  5.5282828580729060e+01  5.5030225898963515e+01  4.1770786817046442e+01  4.1764392059147148e+01  8.7867556901810531e+01  8.7355887653875470e+01  8.7950401250707671e+01  4.6547992146087708e+01  4.6978704334982766e+01  4.3486997206887686e+01  8.5627497477674339e+01  8.5758136123904848e+01  8.4004417469994763e+01  5.0472825854563226e+01  4.8839046238039316e+01  8.5544999987737029e+01  5.1371660416684769e+01  8.5788985587744108e+01  8.8609720240691317e+01  5.6545296735737537e+01  5.4904692706919832e+01  4.3235065268735106e+01  5.8719886465595231e+01  8.3008443140001177e+01  8.1569273713855878e+01  5.5206140292987733e+01  4.3428807179376598e+01  8.1060040180922471e+01  5.9432577100079286e+01  8.3229860353107242e+01  8.1665921703099229e+01  8.1342724154810838e+01  8.3641512108315226e+01  8.3730174788499824e+01  5.1265146659814206e+01  4.9180729290226544e+01  4.9303766909423835e+01  6.0787094950778318e+01  4.4265032074302113e+01  4.1991957078286930e+01  4.4893453023955551e+01  4.1762157876273065e+01  3.9717448977106805e+01  4.0711325628466660e+01  4.9792252156836255e+01  5.9991305461300271e+01  4.9207598661089996e+01  6.1167745480289391e+01  4.0260148522722901e+01  4.0566868528542940e+01  4.0798411728333804e+01  4.1311965850743789e+01  9.0705424896867115e+01  9.0088780288022832e+01  6.1446604618342036e+01  9.0175940985813384e+01  5.0264797850210890e+01  5.6210947743098217e+01  5.8582824084318027e+01  4.3910779295457282e+01  4.4181501554147815e+01  8.9200357802985181e+01  5.8337226281444785e+01  6.1026728477757537e+01  8.9426452633308173e+01  8.9108609092364119e+01  8.9079421935462918e+01  5.6987298838160974e+01  8.7972939587845175e+01  8.9047145110793750e+01  8.9174476899460714e+01  9.0131161458282804e+01  8.9331031003555950e+01  5.0643012018234970e+01  3.9953326972641086e+01  4.0399202089195974e+01  4.0754415174068036e+01  4.0405028685691292e+01  7.9446290904088528e+01  7.7888288916304234e+01  7.5201917099425330e+01  4.3340303364748003e+01  4.2783922860884765e+01  7.9108431231677713e+01  8.0919140942681068e+01  4.1101657413164681e+01  7.7762143260368802e+01  7.9076738509704626e+01  8.0840725465433522e+01  4.3569807054348409e+01  7.9144764136106275e+01  4.3239929570128396e+01  4.6220556780154148e+01  4.2745856211462993e+01  4.4438199025210515e+01  8.3869181442786598e+01  8.3463925705542437e+01  8.3994887376722730e+01  4.0000000000000000e+01  4.0000000000000000e+01  4.0000000000000000e+01  4.6763903192275912e+01  4.0000000000000000e+01  4.0000000000000000e+01  6.0742154921389698e+01  4.9895274879167964e+01  5.2419370306138156e+01  4.1357470139541171e+01  4.1472091762199703e+01  4.1815939346552433e+01  4.0403760855741702e+01  5.4387620441570220e+01  4.7771330051213027e+01  4.6924883791451933e+01  5.9512190865167995e+01  4.1875716203573539e+01  4.1768643838367780e+01  4.4215863008394415e+01  4.0000000000000000e+01  3.9921281400840869e+01  4.0451753053950512e+01  4.0249608587916711e+01  4.0433413475317607e+01  3.9731625764103356e+01  3.9872576666843429e+01  4.0000000000000000e+01  4.0688968829743729e+01  3.9837683951907962e+01  4.0256658006703134e+01  4.0362132313654989e+01  4.0792956327148957e+01  4.0000000000000000e+01  4.0408588205034725e+01  4.9147077163587269e+01  4.0614044185492837e+01  4.0516820724083487e+01  4.3252233646416350e+01  4.6132369823340660e+01  8.8485331919031879e+01  5.2482007916049191e+01  5.4543905526955591e+01  8.7860694628234555e+01  5.4509337228379721e+01  8.7868445231447794e+01  4.1771499986793351e+01  4.1402547662712792e+01  4.1493306799561566e+01  4.7009126258060171e+01  4.7853004235148305e+01  4.0648601635228552e+01  4.3342569322100630e+01  8.2081819465577041e+01  4.6165199947082776e+01  8.3219581150608079e+01  4.5186360434011114e+01  8.3671584136570999e+01  4.9338431014430107e+01  4.0747340657325118e+01  4.0533101145056683e+01  4.9878060633294311e+01  8.2004546590115197e+01  8.3197731668517818e+01  4.5103268439210495e+01  4.3176167823025700e+01  5.8358053737558294e+01  8.9100716033919724e+01  8.9119387573638406e+01  8.9304642440131843e+01  6.3261462488379770e+01  5.0013586837043775e+01  5.7017806969930554e+01  8.8742292677911479e+01  8.7848170362784714e+01  5.5897789975798382e+01  9.0837350760461689e+01  9.0747274983202786e+01  5.9455221843732588e+01  4.8435826857482134e+01  6.1363213201415952e+01  6.3867593601473033e+01  9.0208379496026708e+01  9.0101374876573914e+01  4.7105843128350877e+01  6.1514493083439902e+01  9.0106242861161832e+01  9.0891532119236231e+01  6.3294068981923758e+01  6.3036101388689460e+01  5.0218988860338257e+01  9.0884843250871782e+01  5.6959383495468217e+01  6.0644372115635690e+01  4.1998277797456993e+01  4.4776887842796519e+01  5.9872160315917256e+01  5.5669905106373839e+01  4.3903830702809145e+01  8.4190595419441735e+01  8.1171217766325398e+01  8.2983772568881207e+01  8.3797821082262644e+01  5.8754916099517480e+01  5.7786021897573349e+01  8.4115071827520595e+01  8.3755459369704397e+01  6.5446568268571568e+01  5.1157160329203570e+01  6.7840036027819735e+01  5.3003713909519597e+01  6.9463194389563824e+01  7.0004965333216120e+01  3.9814854449378160e+01  6.4015794787215626e+01  7.2329262579000712e+01  4.9381026655492555e+01  7.5303567717666681e+01  4.8793942816727949e+01  4.7543754098634736e+01  7.4987306910437681e+01  4.0439362733031970e+01  3.9833656050645295e+01  4.8999750005140321e+01  7.5622195194838909e+01  4.0553643353145262e+01  4.6602357551422358e+01  4.7198602156930832e+01  5.3231845976041967e+01  5.5782997865963644e+01  8.7468132878434133e+01  4.3573696465380735e+01  4.0000000000000000e+01  4.0724898660648655e+01  4.0000000000000000e+01  4.0000000000000000e+01  4.0766282782204840e+01  6.4859250820647432e+01  4.6342217191494441e+01  7.2555675939029442e+01  5.0354786824494539e+01  4.9408096394535555e+01  4.2415703743749184e+01  4.1317309019986389e+01  7.6406951842102416e+01  4.0774744915863486e+01  4.0000000000000000e+01  4.0454388129308931e+01  4.0000000000000000e+01  4.0000000000000000e+01  4.9006273990230468e+01  7.1012864437752313e+01  7.5629089154091545e+01  7.6279665969895049e+01  5.1263401256397685e+01  8.8858306087429099e+01  8.9025189980274106e+01  8.8885272715433473e+01  5.9761008977683566e+01  8.8872585133241330e+01  5.9819186575064087e+01  8.8918900727260066e+01  8.9102399979787563e+01  5.9798674247123607e+01  6.3043495581300398e+01  9.0161705489062044e+01  9.0432960752816768e+01  9.1171595400476875e+01  6.1210675838125773e+01  6.3720644564037130e+01  9.0417264009744272e+01  8.6060709390088661e+01  8.8482691619762733e+01  5.4459318410102860e+01  8.7815255284673057e+01  8.6538456313806037e+01  5.3905356987366559e+01  8.7750130154715976e+01  4.0000000000000000e+01  4.1384520927048683e+01  3.9455874674297235e+01  4.8074851433133723e+01  6.3934194569544282e+01  4.0000000000000000e+01  4.0000000000000000e+01  4.0058146555769845e+01  4.0000000000000000e+01  4.0000000000000000e+01  4.0000000000000000e+01  4.0000000000000000e+01  4.0000000000000000e+01  6.3748535959087612e+01  4.0000000000000000e+01  7.0713742733491131e+01  5.5848783992657850e+01  4.2839048526180164e+01  5.8880786587360156e+01  4.4011082461449888e+01  4.0000000000000000e+01  4.0000000000000000e+01  4.5347769938222569e+01  4.0000000000000000e+01  4.0000000000000000e+01  4.0000000000000000e+01  6.3524216709557955e+01  4.0000000000000000e+01  6.0860010509865489e+01  7.4883365448113338e+01  4.0835184074592433e+01  4.0000000000000000e+01  4.0000000000000000e+01  4.0176589046889617e+01  4.0000000000000000e+01  4.0000000000000000e+01  4.0000000000000000e+01  5.0087201995139218e+01  8.7070681954084009e+01  5.5846160155701888e+01  5.8853271246325413e+01  8.7616777524498374e+01  8.7417998619859304e+01  8.7444985994764835e+01  8.9056297094843842e+01  8.9087672196899803e+01  5.7060458939729017e+01  8.4197731088658969e+01  8.3784313431125597e+01  5.7930401028047584e+01  8.4124539256115355e+01  4.8987538888654498e+01  4.0460275287635817e+01  4.0490211256907912e+01  3.9720801028690474e+01  8.5005549373040296e+01  5.1082458080543674e+01  8.3452369654288759e+01  4.9471436156725765e+01  8.5651904822112257e+01  8.4165602258208622e+01  4.9249164150480503e+01  8.4685768716761714e+01  5.0836234985217125e+01  8.5804334063564383e+01  5.2971174060540577e+01  8.5584703251698357e+01  8.6449548718775546e+01  8.7899910991873213e+01  8.7371685194867609e+01  4.0893244328150544e+01  5.8108336738533666e+01  4.3650470759166183e+01  4.1798423342685986e+01  4.2250958580533677e+01  8.2844036861926483e+01  7.9269674874885425e+01  5.0462053307709944e+01  4.7511361794873963e+01  8.0800421280673120e+01  8.3274985077390497e+01  8.3943252557405586e+01  8.3345238169028391e+01  4.6476701444524878e+01  8.6088399875801869e+01  8.3799981916107541e+01  8.6088213835169626e+01  8.3596558257948558e+01  4.8707121583001651e+01  4.6946917842443597e+01  4.9719950476110299e