<?xml version="1.0"?>
<VTKFile type="UnstructuredGrid"  version="0.1"  >
<UnstructuredGrid>
<Piece  NumberOfPoints="4536" NumberOfCells="20560">
<Points>
<DataArray  type="Float64"  NumberOfComponents="3"  format="ascii">-50.19183049999999 21.4442085 12.388703  -48.887438 21.010057 11.68108175  -48.56592 21.32263325 12.3973335  -48.88556975 20.54902425 12.48667425  -47.5830455 20.5759055 10.9734605  -52.226008 18.208581 8.768791999999999  -51.99288725 18.5211805 9.3864255  -51.75859699999999 19.2008255 9.24831075  -51.31504575 18.5967055 8.79608975  -50.4040835 18.98483 8.823387499999999  -51.081925 18.909305 9.41372325  -50.84763475 19.58895 9.275608500000001  -51.291186 20.19307 9.7278295  -51.52547625 19.513425 9.86594425  -51.7597665 18.83378 10.004059  -51.293525 19.458979 11.239326  -51.2923555 19.8260245 10.48357775  -50.84880425 19.2219045 10.03135675  -50.6156835 19.534504 10.64899025  -49.937842 19.610029 10.0586545  -50.614514 19.9015495 9.893242000000001  -50.17096275 19.2974295 9.441020999999999  -51.52664575 19.1463795 10.6216925  -50.659517 17.696326 9.416604  -50.659517 17.318752 10.070581  -51.20964175 17.887479 10.3643085  -51.4427625 17.1973055 10.400652  -51.7597665 18.078632 11.312013  -51.99288725 17.7660325 10.6943795  -52.226008 17.075859 10.730723  -51.4427625 17.5748795 9.746675  -52.226008 17.453433 10.076746  -52.226008 17.831007 9.422768999999999  -51.4427625 17.9524535 9.092697999999999  -51.99288725 18.1436065 10.0404025  -51.20964175 18.265053 9.710331499999999  -50.97652100000001 18.5776525 10.327965  -50.97652100000001 18.2000785 10.981942  -50.74340025 18.890252 10.9455985  -50.1932755 18.321525 10.651871  -50.42639625 18.0089255 10.0342375  -51.52664575 18.7688055 11.2756695  -51.7597665 18.456206 10.658036  -49.8762715 17.4401985 9.74051  -49.71277475 19.2906185 11.22184525  -48.1320245 19.122258 11.2043645  -49.16265 18.7218915 10.92811775  -49.03493325 19.3661435 10.6315095  -50.06555875 18.965777 10.35526275  -49.515434 18.39705 10.06153525  -48.61252525 18.1531645 10.63439025  -50.53180025 18.340578 9.119995749999999  -50.2986795 18.6531775 9.737629249999999  -49.74855475 18.0844505 9.443901749999998  -49.1619275 20.28323325 11.79653375  -51.0190355 20.18580275 11.123874  -50.74267775 20.45159375 11.8140145  -50.46818825 21.1784175 11.6985625  -49.43828525 20.01744225 11.10639325  -50.744546 20.9126265 11.008422  -47.857535 19.84908175 11.0889125  -47.58117725 20.11487275 11.779053  -46.55127425 18.9538975 11.18688375  -46.27678475 19.68072125 11.07143175  -50.341194 20.26132775 10.53353825  -51.017866 20.55284825 10.36812575  -48.899024 25.403855 9.976455  -47.617748 24.81202225 9.305156  -47.62128525 24.460666 10.15979975  -47.91762125 24.1191125 9.524498999999999  -46.9362185 22.83437 9.072543  -46.34000925 23.86883325 9.48850075  -46.63634525 23.52727975 8.853199999999999  -46.6398825 23.1759235 9.70784375  -46.3435465 23.517477 10.3431445  -46.336472 24.2201895 8.633856999999999  -44.973413 20.264885 8.168631  -44.37720375 21.29934825 8.58458875  -44.67353975 20.95779475 7.949287999999999  -45.95481574999999 21.5496275 8.620587  -45.35860649999999 22.58409075 9.036544750000001  -45.6549425 22.24253725 8.401244  -44.3736665 21.6507045 7.729945  -44.0773305 21.992258 8.36524575  -43.7809945 22.3338115 9.0005465  -44.677077 20.6064385 8.80393175  -45.65847975 21.891181 9.255887749999999  -44.380741 20.947992 9.439232499999999  -44.08086775 21.64090175 9.219889500000001  -43.788069 21.631099 10.709834  -43.78453175 21.98245525 9.85519025  -44.084405 21.2895455 10.07453325  -45.36214375 22.2327345 9.8911885  -45.06580775 22.574288 10.52648925  -45.0622705 22.92564425 9.6718455  -43.77392 23.036524 7.291259  -43.77745725 22.68516775 8.145902750000001  -44.07379324999999 22.34361425 7.510602  -45.35506925 22.935447 8.181901  -45.05873325 23.2770005 8.817201750000001  -45.055196 23.62835675 7.962558  -47.365087 26.909328 12.978313  -45.67265475 27.1758875 11.94622025  -45.70191175 26.68561275 12.95232525  -46.1168045 26.337131 12.2142375  -44.868522 25.764934 11.450162  -44.0094795 26.95217225 11.9202325  -44.42437225 26.6036905 11.18214475  -44.45362925 26.11341575 12.18824975  -44.0387365 26.4618975 12.9263375  -43.9802225 27.442447 10.9141275  -46.92093725 27.7480845 12.71029575  -46.4767875 28.586841 12.4422785  -45.228505 28.014644 11.678203  -45.257762 27.52436925 12.684308  -45.588488 30.264354 11.906244  -44.3694625 29.20188225 12.1482735  -44.78435525 28.8534005 11.41018575  -44.81361225 28.36312575 12.41629075  -43.59458675 27.300654 12.65832025  -43.56532975 27.79092875 11.65221525  -43.150437 28.1394105 12.390303  -46.03263775 29.4255975 12.17426125  -42.371957 24.62054 9.922010999999999  -41.95706425 24.96902175 10.66009875  -43.17608975 26.0314935 10.41806925  -43.20534675 25.54121875 11.42417425  -42.761197 26.37997525 11.156157  -42.790454 25.8897005 12.162262  -41.5421715 25.3175035 11.3981865  -43.6202395 25.192737 10.6860865  -40.712386 26.014467 12.874362  -41.12727875 25.66598525 12.13627425  -42.34630425 26.728457 11.89424475  -42.37556125 26.23818225 12.90034975  -41.9314115 27.07693875 12.6323325  -44.71269725000001 22.42675175 12.15731675  -43.43234074999999 21.93038175 11.424144  -43.78621825 21.1616875 11.50597575  -43.0766125 22.2296645 12.138454  -34.91095 38.990844 19.923345  -31.671805 36.99435649999999 20.834267  -32.3502555 37.413428 19.022058  -33.049819 36.228938 20.0515625  -34.2324995 38.5717725 21.735554  -33.554049 38.152701 23.547763  -31.188688 33.467032 20.17978  -30.4891245 34.651522 19.1502755  -29.789561 35.836012 18.120771  -43.86883324999999 30.0354405 11.88983375  -45.00310675 30.97219825 12.1928565  -45.2176775 30.46526925 12.68389525  -44.846867 30.6661845 13.4615465  -43.49802275 30.23635575 12.667485  -44.63229625 31.1731135 12.97050775  -44.4177255 31.6800425 12.479469  -43.283452 30.74328475 12.17644625  -42.1491785 29.806527 11.8734235  -44.105246 31.068015 15.016849  -42.75640174999999 30.63818625 14.2227875  -43.89067525 31.574944 14.52581025  -43.12721225 30.437271 13.44513625  -41.778368 30.00744225 12.65107475  -42.9126415 30.9442 12.9540975  -43.6761045 32.081873 14.0347715  -42.541831 31.14511525 13.73174875  -41.4075575 30.2083575 13.428726  -44.26148575000001 31.37402875 13.748159  -44.046915 31.88095775 13.25712025  -44.4760565 30.86709975 14.23919775  -43.246963 33.095731 13.052694  -42.1126895 32.15897325 12.74967125  -42.32726024999999 31.65204425 13.24071  -42.69807075 31.451129 12.46305875  -41.56379724999999 30.51437125 12.160036  -41.19298675 30.7152865 12.93768725  -40.978416 31.2222155 12.4466485  -43.46153375 32.588802 13.54373275  -43.83234425000001 32.38788675 12.7660815  -38.709869 29.3487 11.840603  -39.8441425 30.28545775 12.14362575  -40.05871325 29.77852875 12.6346645  -40.42952375 29.5776135 11.85701325  -43.147318 27.61437575 13.4880835  -42.7796265 28.34032575 13.16795425  -44.3632245 28.15181275 14.3438345  -42.408816 28.541241 13.9456055  -43.99553299999999 28.87776275 14.02370525  -43.6247225 29.078678 14.8013565  -44.840629 29.616115 15.6571075  -45.576012 28.164215 16.297366  -45.2083205 28.890165 15.97723675  -45.579131 28.68924975 15.1995855  -44.3663435 28.6768475 13.246054  -45.58225 29.2142845 14.101805  -45.2114395 29.41519975 14.87945625  -45.585369 29.73931925 13.0040245  -43.998652 29.4027975 12.92592475  -45.2145585 29.9402345 13.78167575  -44.4729375 30.342065 15.33697825  -43.257031 29.804628 14.48122725  -43.6278415 29.60371275 13.703576  -44.84374800000001 30.14114975 14.559327  -42.134025 33.19718 16.083258  -40.6106075 32.949673 15.2784205  -40.88208425000001 32.399413 15.78126325  -41.00650925 32.78532 14.5197515  -39.8789935 32.37346 12.956245  -39.48309175 32.537813 13.714914  -39.7545685 31.987553 14.21775675  -39.6301435 31.601646 15.4792685  -39.35866675 32.151906 14.97642575  -39.08719 32.70216600000001 14.473583  -41.86254825 33.74744 15.58041525  -40.7350325 33.33558000000001 14.01690875  -41.5910715 34.29770000000001 15.0775725  -40.33913075 33.49993300000001 14.77557775  -41.277986 32.23506 15.02259425  -40.421947 31.27294 13.9619305  -40.02604525 31.437293 14.7205995  -40.15047025 31.8232 13.45908775  -41.048118 35.39822 14.071887  -40.067654 34.05019300000001 14.272735  -41.31959475 34.84796 14.57472975  -40.46355575 33.88584 13.514066  -38.31396725 29.513053 12.599272  -39.29443125 30.86108 12.398424  -39.565908 30.31082 12.90126675  -38.8985295 31.025433 13.157093  -39.17000625 30.475173 13.65993575  -37.9180655 29.677406 13.357941  -37.126262 30.006112 14.875279  -37.52216375 29.841759 14.11661  -38.50262775 31.189786 13.915762  -38.7741045 30.639526 14.41860475  -38.10672599999999 31.354139 14.674431  -50.200178 23.714798 7.317818  -48.5679275 23.828039 6.42366125  -48.8940475 23.10359475 6.732803000000001  -48.5936135 23.5452295 7.311178249999999  -46.987049 23.375661 7.3045385  -46.961363 23.6584705 6.4170215  -47.287483 22.93402625 6.72616325  -47.587917 22.4923915 6.147788  -47.261797 23.21683575 5.83864625  -46.935677 23.94128 5.5295045  -49.87405800000001 24.43924225 7.008676250000001  -48.2674935 24.26967375 7.0020365  -49.547938 25.1636865 6.6995345  -48.2418075 24.55248325 6.1145195  -48.895698 26.612575 6.081251  -47.9156875 25.2769275 5.80537775  -47.6152535 25.71856225 6.383753  -47.9413735 24.994118 6.69289475  -46.660929 24.10010525 6.995396749999999  -46.334809 24.8245495 6.686255  -46.635243 24.38291475 6.10787975  -49.221818 25.88813075 6.39039275  -44.975656 21.269985 4.977758  -45.9556665 22.6056325 5.25363125  -44.675222 21.71161975 5.55613325  -45.9813525 22.322823 6.14114825  -45.6552325 23.04726725 5.8320065  -45.6809185 22.76445775 6.719523499999999  -44.374788 22.1532545 6.1345085  -46.2817865 21.88118825 5.562773  -45.3547985 23.488902 6.41038175  -44.074354 22.59488925 6.71288375  -45.38048449999999 23.2060925 7.29789875  -45.0543645 23.93053675 6.988757  -45.989047 17.58421 8.706496  -46.637325 18.4091675 8.052804500000001 
[...]
<PointData  Scalars="p_O2"> 
<DataArray  type="Float64"  Name="p_O2"  format="ascii">8.4355347542127006e+01  5.0055201696163365e+01  5.1517669701398411e+01  4.8990614521186352e+01  3.9727616857143310e+01  4.0000000000000000e+01  6.4760329645194005e+01  7.1750827169110266e+01  4.3784479839303749e+01  4.0853056175579958e+01  4.9186647728194743e+01  5.3175406429546378e+01  7.7838624880419388e+01  7.5630155448448733e+01  7.1763668822527137e+01  7.7298972696614300e+01  7.9741151594482346e+01  5.2133006220954890e+01  5.6510550384442041e+01  4.4960936106862967e+01  5.7090082001692124e+01  4.3379849795451705e+01  7.6151473499629105e+01  4.0000000000000000e+01  4.0000000000000000e+01  4.4640489666051991e+01  4.0000000000000000e+01  7.1542535730524648e+01  6.3614005597072122e+01  4.0000000000000000e+01  4.0000000000000000e+01  4.0000000000000000e+01  4.0000000000000000e+01  4.0000000000000000e+01  6.0573083178323863e+01  4.7349258910504339e+01  5.0173831608439201e+01  4.8811742161793752e+01  5.4395644473909897e+01  4.2117327646535074e+01  4.1616166398018535e+01  7.5284716630934639e+01  7.5217875118037085e+01  4.0000000000000000e+01  4.3903598399378090e+01  3.9376825575819133e+01  4.0688378186168912e+01  4.1596051795659243e+01  4.4204511862204235e+01  4.1029892060206130e+01  4.0133993748189916e+01  4.0575094789292152e+01  4.3249391184011913e+01  4.0470681517565708e+01  4.6930496447167819e+01  7.9719057361956160e+01  8.3870987938852764e+01  8.3971377225604755e+01  4.6059752457883370e+01  8.1536721344557378e+01  3.9828405066319647e+01  4.0707371071055995e+01  4.1421782459950762e+01  4.1503357804876742e+01  5.9728472961177346e+01  8.1024201587093657e+01  8.8294567387625236e+01  5.8379737231277872e+01  5.7684112322156651e+01  5.5672983419240921e+01  4.0700401123918503e+01  4.3539756692212677e+01  4.2184730608812252e+01  4.1915240628566615e+01  4.2478994281102537e+01  4.2803680480915681e+01  7.4587566513244965e+01  8.2736268610046722e+01  7.9306780818967383e+01  4.3235882346584646e+01  4.8133481895380029e+01  4.6706356252982047e+01  8.1181750931509711e+01  8.3216285951048306e+01  8.4091743721636789e+01  7.9371332591411317e+01  4.5753473804316805e+01  8.1309411897863995e+01  8.3365267733588183e+01  8.4032713071554042e+01  8.5086247093502280e+01  8.3528215731595111e+01  4.7240365456103156e+01  4.8869073757021980e+01  5.0590802564226493e+01  8.4115785824167304e+01  8.5133543412114875e+01  8.3599407090317669e+01  4.7325125303301014e+01  4.9088204048549620e+01  4.9929234751749206e+01  9.0505180650494665e+01  6.5276287685860183e+01  6.6245741881623928e+01  6.5326905768416310e+01  4.9267119756644611e+01  5.4364725466143099e+01  5.2055635047720699e+01  5.1782514744075932e+01  5.3327677172516310e+01  5.3877973868144181e+01  9.1251699298335822e+01  9.1458630939534174e+01  6.8286689274703974e+01  6.7323575263150630e+01  9.2827794794024271e+01  7.1480341724343162e+01  6.9399077262488788e+01  6.9140366500445481e+01  5.6428591195715875e+01  5.6548119845760517e+01  5.8698975562564208e+01  9.2073326058403111e+01  8.7750710433458451e+01  8.8774346801440061e+01  6.0541038696425836e+01  5.9610972982906112e+01  6.2829867513726924e+01  6.2543769329476724e+01  8.8921267066359093e+01  5.8147099449937777e+01  9.0265924413451046e+01  9.0452565170000440e+01  6.4444863665665324e+01  6.3148379925344003e+01  6.5955385841940952e+01  5.1013463084391759e+01  8.5817095368137714e+01  8.5059761373290968e+01  8.6081430251019412e+01  9.8981625813099356e+01  9.6555198015122429e+01  9.5757298180026922e+01  9.4437772761022401e+01  9.9308945668301533e+01  9.9253381133972610e+01  9.8601916972218859e+01  9.8916273440465872e+01  9.9194050530561796e+01  7.2581603488076013e+01  9.4415970870673675e+01  9.3202823138915051e+01  9.3409380253621052e+01  7.4142357225786981e+01  9.3672515867594697e+01  9.3598484111298589e+01  7.5216393265723170e+01  6.4177824487581589e+01  9.4023911430139279e+01  7.7450127014788990e+01  9.4133707185933687e+01  7.5667437617396516e+01  6.6660272130905156e+01  7.6589072554082350e+01  9.4274061065135598e+01  7.8321546354764706e+01  6.8610759479182605e+01  9.3872929024834391e+01  9.4033859993232468e+01  9.3530414616874424e+01  9.4620030453472921e+01  8.0268009847241942e+01  7.8909388387399559e+01  7.7460817239330154e+01  6.8559855315204217e+01  7.0035648745226496e+01  7.1189967277291188e+01  9.4310647250526742e+01  9.3754568358699004e+01  9.3167167485507179e+01  7.6762766283191297e+01  7.5062476372789007e+01  7.2792054685888800e+01  5.9833345047628676e+01  6.1219255592340176e+01  7.0282090133431666e+01  6.3206573480063426e+01  7.2250432083106546e+01  7.4189734022262698e+01  9.2845769240473061e+01  9.2847088747512160e+01  9.3141754609092018e+01  9.2699882426212028e+01  7.0939214457621830e+01  9.1970513258789111e+01  9.2515376270649327e+01  9.2595970518176259e+01  7.2851641900584582e+01  9.3028638091063854e+01  9.3447115884185891e+01  7.5922545423070616e+01  7.4158173152434514e+01  9.2747233342065584e+01  9.5490000240607387e+01  8.4316985457619595e+01  8.4097094469164730e+01  8.2894137350472988e+01  7.6507770331696278e+01  7.8499866191719903e+01  7.7683531201452226e+01  7.7724503453506017e+01  7.9082784342221771e+01  8.0046927002208577e+01  9.5743796717841235e+01  8.3903880142739496e+01  9.5863978217724622e+01  8.5254439312224292e+01  8.2223866507473105e+01  7.3809565607361321e+01  7.6109300408480379e+01  7.5342305378665841e+01  9.6344825420107895e+01  8.6068950059315227e+01  9.5919197735190565e+01  8.4847572668282425e+01  9.4030285960869861e+01  7.9328657190723732e+01  7.7673793225339210e+01  8.1064288411250359e+01  7.9665354501688270e+01  9.4267741303924197e+01  9.4954169696496180e+01  9.5245597298672251e+01  8.1873561736482870e+01  8.0555745328859246e+01  8.3367194217433379e+01  8.4426563797898069e+01  5.1417923621774491e+01  5.0497969409076440e+01  5.1544134404451611e+01  4.0497866746899682e+01  4.1476737052543164e+01  4.0887931908652163e+01  4.0205305155805654e+01  4.0903627486873994e+01  4.0686144288667734e+01  8.6044673456116215e+01  5.3473702562263149e+01  8.7054362433586405e+01  5.3977775870933954e+01  8.8295707221151972e+01  5.5670038417500166e+01  5.7710237077944875e+01  5.5218036465375100e+01  4.2012724041745471e+01  4.2520872732662887e+01  4.1920611265196676e+01  8.7975023337312393e+01  7.4645595534528866e+01  4.3359574433231366e+01  7.9325299367041112e+01  4.3562395039370031e+01  4.6174238269168399e+01  4.5938585268651025e+01  8.1134299625393609e+01  4.2568302135977994e+01  4.7358523869049193e+01  8.3561952063365894e+01  4.6972468918648410e+01  4.8982002641291828e+01  4.0000000000000000e+01  3.9588319562225088e+01  4.0588258869705591e+01  4.4979914313821318e+01  4.1583698063122725e+01  4.0468550279708232e+01  4.1122380972916496e+01  4.1142331069069925e+01  4.0321690150667123e+01  4.0219520167273423e+01  6.0326638884351581e+01  7.0212003012259515e+01  4.4317377952113688e+01  4.8977525677234794e+01  4.0000000000000000e+01  6.2704970778392031e+01  4.0000000000000000e+01  4.0654307691159524e+01  4.0000000000000000e+01  3.9327701271132206e+01  4.0000000000000000e+01  6.3920238105132540e+01  7.1723892405565437e+01  4.5018044304735639e+01  6.1052180188094063e+01  4.7295845851973624e+01  5.1213679812905205e+01  7.4819492807392436e+01  7.5390127898828425e+01  7.6192127305185736e+01  4.0392970937142508e+01  4.0050969598689178e+01  4.0253989733691512e+01  4.0561106863748009e+01  4.0000000000000000e+01  4.0138210206233609e+01  4.0000000000000000e+01  4.0263494741165566e+01  4.0000000000000000e+01  4.0000000000000000e+01  4.0000000000000000e+01  4.0000000000000000e+01  4.0437198626807984e+01  4.0000000000000000e+01  4.0000000000000000e+01  4.0217494580495426e+01  4.0143203338842916e+01  4.0000000000000000e+01  4.0123975685875294e+01  3.9889204313703900e+01  4.0233731414015622e+01  4.0000000000000000e+01  4.0420692589386242e+01  4.0174901592603099e+01  4.0599768896507250e+01  4.0239739159640216e+01  4.0104857504545066e+01  4.0468315403392253e+01  4.0003938384611573e+01  4.0181070065233925e+01  4.0288126287438594e+01  4.0255538429581811e+01  4.0501487763095732e+01  4.0354008462560095e+01  4.0202574041090770e+01  4.0310244831200123e+01  4.0135302808110957e+01  4.0568896350882348e+01  4.0436115174360417e+01  4.0270932853884453e+01  4.0522555155811695e+01  4.0123216815347519e+01  4.0063970791497638e+01  4.0322901443457404e+01  8.7809540028396597e+01  8.7143510469879089e+01  8.7100322424078755e+01  8.2075732903778416e+01  8.4269722680837475e+01  8.3415335077881849e+01  8.4117079392510973e+01  8.5191940243572134e+01  8.6055260508671864e+01  9.6779959033223577e+01  9.7227838713878626e+01  8.9654018817607536e+01  8.8681920984975903e+01  9.6892335928099314e+01  9.6694550849022846e+01  8.8229489517131000e+01  9.7013026631483910e+01  9.6001234192886287e+01  8.9135570266891762e+01  9.7132025750415110e+01  9.6532045342457806e+01  8.9752703300246409e+01  9.7109665092788120e+01  9.7479067643394558e+01  9.7180248971663303e+01  9.1052036603648119e+01  9.0425644310469934e+01  9.6838711494731015e+01  9.7327218861492213e+01  9.7176463196856687e+01  9.6099728080801569e+01  8.7975392337970490e+01  8.6608817347813698e+01  8.5634030778762181e+01  4.3083779018697136e+01  4.0220959359734842e+01  4.0568748229857370e+01  4.0736862470201459e+01  4.9897138944605594e+01  5.0584358559495030e+01  4.1757482266371085e+01  4.0526283238215107e+01  4.0379736378365223e+01  4.0163940084355936e+01  9.4049074108850022e+01  7.8402287323532377e+01  7.8143273255846267e+01  7.7483263297119009e+01  6.8647519872622965e+01  7.1548650027897551e+01  7.1240400973386414e+01  7.2838190875745710e+01  7.3452531466755730e+01  7.3835614714098725e+01  9.4671828197156202e+01  9.4700793784787862e+01  8.0307939772464323e+01  8.0198332170655149e+01  9.5588571899893466e+01  8.4011041467923590e+01  8.2237405509952964e+01  8.1887027446581186e+01  7.6145398038399364e+01  7.5516492667544568e+01  7.7778349643322002e+01  9.5121266412534027e+01  9.3172769847225638e+01  9.4051178708583762e+01  7.7713962275672472e+01  7.7246721232138952e+01  7.9076661410288978e+01  7.9723575843607406e+01  9.4289248400092177e+01  7.5101481954770151e+01  9.5017417368455170e+01  9.5280472518304137e+01  8.0616988961863058e+01  7.9855716364222630e+01  8.2302139978732953e+01  5.4539392756496291e+01  8.8569517701030705e+01  8.7868238345879377e+01  8.8212456978899127e+01  8.6191814388309666e+01  8.7144355957053207e+01  5.4001885681610162e+01  8.8212974676704079e+01  5.6426809204103840e+01  5.5211701631978769e+01  4.3596473857894289e+01  4.2170607198372451e+01  8.8573799045574489e+01  5.7330973964318176e+01  8.7948832169546236e+01  8.8696904648141853e+01  8.0904607713686261e+01  8.0138792799011128e+01  7.4212499293878096e+01  7.2846987747514547e+01  9.5075859301028700e+01  9.5163780242466899e+01  8.2027045320411162e+01  8.1404302324511633e+01  9.5648945050732706e+01  9.5438397349419077e+01  9.5581484928471966e+01  8.3072964186770321e+01  9.5619538234680846e+01  9.5804298876505158e+01  9.5243708279036511e+01  9.5646611553963879e+01  9.9466783139699643e+01  9.9376561045259692e+01  9.9455262789709124e+01  6.4698313418890962e+01  6.2642930137155453e+01  4.5345507854652020e+01  4.9969880834954388e+01  4.7369730533164116e+01  4.7732951195265535e+01  4.8797150665511474e+01  8.6999597912250451e+01  8.5836783364238755e+01  5.1608910198140087e+01  5.5863173904825167e+01  5.4493561083882994e+01  8.6188635059909942e+01  8.7499462780436119e+01  8.8060771228651802e+01  5.4038322157158056e+01  8.7433301782485032e+01  5.5493716019301409e+01  8.8446055353614099e+01  8.8462267669589551e+01  8.7823694481214716e+01  5.5445969445005190e+01  5.7249383636430721e+01  9.8017179419280311e+01  9.2205603696485994e+01  8.9946382801693971e+01  8.9011990696195952e+01  9.6216252335691536e+01  9.8564534913955029e+01  9.7043137122949389e+01  9.6947835770766773e+01  9.8201805960388455e+01  9.7936119349269546e+01  9.3995591376014687e+01  9.3070033823534914e+01  9.8356184779321879e+01  9.8535971906183349e+01  9.8598500460641390e+01  9.9100122648537351e+01  7.1736778606001138e+01  5.9756064558165420e+01  6.1613276809211733e+01  6.2190933395825425e+01  5.9122170155961307e+01  9.0329784497789859e+01  9.1140215168778099e+01  9.1068499330886581e+01  6.8867307384158053e+01  7.2141312426855535e+01  6.9630493695140629e+01  9.0681406756256550e+01  9.1504442529267493e+01  9.1911166789749714e+01  6.6321660208571657e+01  6.7652352167596817e+01  6.7138343983570437e+01  9.0986741491096453e+01  9.1186662011637878e+01  6.8811611317584450e+01  7.1669535464080141e+01  9.1983438933638809e+01  9.1605434357014047e+01  9.3569929439692942e+01  9.3107667555780878e+01  9.3125994554938970e+01  5.6837571690355304e+01  8.9498599036221194e+01  6.4877153848151139e+01  9.0177076100875738e+01  8.8788510298778490e+01  6.3217909685092373e+01  8.9031970214562790e+01  9.0240589686782400e+01  9.0549652202611171e+01  6.4365317987538305e+01  8.4312014276982950e+01  4.9906660415992064e+01  5.1568347634751284e+01  5.0542616049040575e+01  4.0258117544251739e+01  4.0613474461528526e+01  4.0966910756387357e+01  4.0513004625906646e+01  4.0538288337990693e+01  7.4659585309724903e+01  4.3303696788843538e+01  7.9322662867247118e+01  7.7270173276882716e+01  7.5350462168343029e+01  4.2717969464330722e+01  7.9878784356572623e+01  8.1102960930710722e+01  4.5387017880332131e+01  4.2647469176521099e+01  4.3405446618751121e+01  7.7228804730453760e+01  4.5761471966007662e+01  7.9853881515422088e+01  4.1869278717750809e+01  4.2562474979078743e+01  4.6787931124930999e+01  8.4201848710458790e+01  8.3545616458000211e+01  9.8948733395520435e+01  9.9102128247850487e+01  9.9039023559196835e+01  8.8418211057209788e+01  8.7493865739893451e+01  8.5759033481415770e+01  8.2311527102357317e+01  8.3367717219507441e+01  9.5541682903564791e+01  8.5713769605711619e+01  9.6375988467454150e+01  9.7027249794542740e+01  8.7981119701761756e+01  9.6303235070578069e+01  9.5487585411596072e+01  9.5497407227601215e+01  9.6253394139941335e+01  8.6392817512200423e+01  9.6205213265491338e+01  9.6187843926806181e+01  4.9442037662898841e+01  4.0601238154659576e+01  4.0653988930156373e+01  3.9642991513475955e+01  8.4593085297875263e+01  8.3773053427036231e+01  5.0016433521215440e+01  5.1603379417659930e+01  8.5680099658095145e+01  8.4382075899089472e+01  4.9808065658629729e+01  5.1557866713466183e+01  8.4879118664297124e+01  8.6155482071805750e+01  8.5740396921204635e+01  5.3621222707531302e+01  8.7148218912151080e+01  8.7952534650720054e+01  8.7514706525682939e+01  4.1927155129213183e+01  5.1591460753853369e+01  4.1281780498822386e+01  8.6272143844497862e+01  5.4029973831465774e+01  8.7308251056219717e+01  8.7337146090878150e+01  8.5341691626915903e+01  8.3283460934233005e+01  8.4075317268160603e+01  8.8615770720968612e+01  9.7184186280692927e+01  9.7565890250347621e+01  9.7812391338705524e+01  8.9394895098713803e+01  9.6489075524111783e+01  9.6600986413788547e+01  8.8391767261661485e+01  9.6975198253059261e+01  9.6015380909115834e+01  8.9067958037583068e+01  9.7106182507686924e+01  9.6240494413864596e+01  9.0463723409747487e+01  9.7221408048198654e+01  8.6594556070098506e+01  7.7009481977947047e+01  6.8720621924093976e+01  7.0957269504201747e+01  6.9348579512558629e+01  7.7167873010214578e+01  9.3967762499665113e+01  9.3939770682475952e+01  9.3681973707823190e+01  7.8994865243702193e+01  7.8398092947677625e+01  9.4096442950046608e+01  9.4306920894090567e+01  7.5411499876944504e+01  7.6312457748679122e+01  9.4085724602651496e+01  9.4089083954319378e+01  7.5941419978779919e+01  9.5583986371132212e+01  9.5259027313063712e+01  7.8620492774364749e+01  5.6527980139307459e+01  5.3978580813962687e+01  5.7561620401658018e+01  4.5209019673016442e+01  4.6047429574408390e+01  4.3769040152092224e+01  4.2302281966974853e+01  4.4196332021509832e+01  4.5131735984810028e+01  4.0877247148728841e+01  4.1497675627856225e+01  4.2141547662560477e+01  4.1246067731871207e+01  4.0586182149474155e+01  4.0886532519558934e+01  4.1617876934441121e+01  4.1206071488122319e+01  4.1961443532917215e+01  4.1880787542776098e+01  5.9347630233453621e+01  5.8510834946934800e+01  4.7694022144350981e+01  4.7625627473541243e+01  4.6994717419332709e+01  4.8835390180172737e+01  4.8238791591303119e+01  8.1940433957141721e+01  6.2962402096586850e+01  6.2403475377618193e+01  8.3153662138417261e+01  4.7487418969813781e+01  8.4335136182421039e+01  6.5745841449713225e+01  6.5065608871662022e+01  4.2344665187686452e+01  4.2771434889261052e+01  4.2669467873822981e+01  4.2954498709141475e+01  4.9720808559352932e+01  3.9868410589857007e+01  4.3682514002758644e+01  4.3626215070796341e+01  4.1822642331449259e+01  4.0673972106072121e+01  4.1257609365281496e+01  4.0437222770968006e+01  4.0512547035037215e+01  4.0695080964380146e+01  5.9288347737819876e+01  4.9258310620176076e+01  4.8439616505848548e+01  4.7234409991640000e+01  8.2415133122144496e+01  6.4448768422248108e+01  8.3763539631796860e+01  8.4423655016794100e+01  8.1325207231427427e+01  6.2299028268584216e+01  6.2696760890983029e+01  8.2899303008691064e+01  8.3889839370076842e+01  8.4055103642743376e+01  6.5360107204343493e+01  6.4709209541100520e+01  8.4701937807318771e+01  8.4906505839907680e+01  4.3117875733055413e+01  4.9454619986605110e+01  4.3333595758567419e+01  5.0024150173936860e+01  4.0600822575528092e+01  4.3755289618141781e+01  4.1451489478600912e+01  4.0424065260253641e+01  4.0000000000000000e+01  4.0253843094862773e+01  4.0000000000000000e+01  3.9367585956444231e+01  4.0063027819332135e+01  4.0229195044733416e+01  4.0350674339234146e+01  4.0000000000000000e+01  4.0072686478319739e+01  4.0289010324170775e+01  4.0000000000000000e+01  4.0204180991196154e+01  4.0196614607270483e+01  3.9959379029479685e+01  4.0166725035327730e+01  4.0048941650889788e+01  4.0313918820108881e+01  4.0450485551967738e+01  4.0696670313095638e+01  4.0112265655920048e+01  4.0015135926458321e+01  4.0457130294195380e+01  4.0353417171716345e+01  3.9882682695095497e+01  3.9948164268439399e+01  4.0000000000000000e+01  4.0559418023911782e+01  4.0467408019002001e+01  4.0732197428404561e+01  3.9975237384398611e+01  4.0117513505635600e+01  4.0748430903025721e+01  4.0428073577442660e+01  3.9965072169439956e+01  8.5220871676602897e+01  8.6108125990613928e+01  5.1370543126634225e+01  6.0050169238640287e+01  8.9394720997426205e+01  9.1312195538520385e+01  5.4560110377206712e+01  8.6103449241421174e+01  8.8661866839939094e+01  8.7869284119550642e+01  8.8228901345988703e+01  8.7100590431830014e+01  5.3492394892883404e+01  8.8274176296859210e+01  4.2006086902331162e+01  4.3542723845494336e+01  5.6397437861636391e+01  5.7312402641619585e+01  5.5188317508655807e+01  8.8588694334864613e+01  5.5212309316484024e+01  8.8705581976739595e+01  8.7981785191973742e+01  4.9693216557663014e+01  4.2671843774260552e+01  9.4200221227205944e+01  9.2449554225544205e+01  9.3751105550831241e+01  9.1079213850601207e+01  9.8171852889550166e+01  9.7738861944641357e+01  9.6976879744096848e+01  9.2773652348870485e+01  8.0557772838991283e+01  7.3567565199599755e+01  7.5130417901402510e+01  7.5904876356488444e+01  8.2375074296715979e+01  8.6164335135937748e+01  8.4422095662160899e+01  7.8657311918511738e+01  7.7941483842940826e+01  8.0098125670629386e+01  7.8174760684106431e+01  8.0970813474043425e+01  8.0345969981538346e+01  8.1963080163883845e+01  8.0899561218411009e+01  8.3359951565609592e+01  9.5135435233010412e+01  9.5444398593080663e+01  9.5070604833773913e+01  8.1906331309090987e+01  8.4039841556980548e+01  8.2658459086604495e+01  7.6723153146935218e+01  7.9134080295775362e+01  9.6059821338695983e+01  8.3324997621099428e+01  9.6139778798608546e+01  8.5281692638732650e+01  9.5534277385909462e+01  9.5810032036629892e+01  9.5168487296837029e+01  9.6191591395493376e+01  8.4782530641847615e+01  8.0441629191353499e+01  8.1433360162686398e+01  8.2380794894503950e+01  9.6134766949491379e+01  8.5825320899267012e+01  9.6378634074461132e+01  8.6835487018728884e+01  9.6333067441622916e+01  9.6474854686406971e+01  8.6800079556116074e